Title: monte carlo simulation plot
Date: Mon Jan  2 17:43:32  2023
Plotname: monte_carlo
Flags: real
No. Variables: 101
No. Points: 27
Variables:
	0	voltage_sweep	voltage
	1	output_current_0	notype
	2	output_current_1	notype
	3	output_current_2	notype
	4	output_current_3	notype
	5	output_current_4	notype
	6	output_current_5	notype
	7	output_current_6	notype
	8	output_current_7	notype
	9	output_current_8	notype
	10	output_current_9	notype
	11	output_current_10	notype
	12	output_current_11	notype
	13	output_current_12	notype
	14	output_current_13	notype
	15	output_current_14	notype
	16	output_current_15	notype
	17	output_current_16	notype
	18	output_current_17	notype
	19	output_current_18	notype
	20	output_current_19	notype
	21	output_current_20	notype
	22	output_current_21	notype
	23	output_current_22	notype
	24	output_current_23	notype
	25	output_current_24	notype
	26	output_current_25	notype
	27	output_current_26	notype
	28	output_current_27	notype
	29	output_current_28	notype
	30	output_current_29	notype
	31	output_current_30	notype
	32	output_current_31	notype
	33	output_current_32	notype
	34	output_current_33	notype
	35	output_current_34	notype
	36	output_current_35	notype
	37	output_current_36	notype
	38	output_current_37	notype
	39	output_current_38	notype
	40	output_current_39	notype
	41	output_current_40	notype
	42	output_current_41	notype
	43	output_current_42	notype
	44	output_current_43	notype
	45	output_current_44	notype
	46	output_current_45	notype
	47	output_current_46	notype
	48	output_current_47	notype
	49	output_current_48	notype
	50	output_current_49	notype
	51	output_current_50	notype
	52	output_current_51	notype
	53	output_current_52	notype
	54	output_current_53	notype
	55	output_current_54	notype
	56	output_current_55	notype
	57	output_current_56	notype
	58	output_current_57	notype
	59	output_current_58	notype
	60	output_current_59	notype
	61	output_current_60	notype
	62	output_current_61	notype
	63	output_current_62	notype
	64	output_current_63	notype
	65	output_current_64	notype
	66	output_current_65	notype
	67	output_current_66	notype
	68	output_current_67	notype
	69	output_current_68	notype
	70	output_current_69	notype
	71	output_current_70	notype
	72	output_current_71	notype
	73	output_current_72	notype
	74	output_current_73	notype
	75	output_current_74	notype
	76	output_current_75	notype
	77	output_current_76	notype
	78	output_current_77	notype
	79	output_current_78	notype
	80	output_current_79	notype
	81	output_current_80	notype
	82	output_current_81	notype
	83	output_current_82	notype
	84	output_current_83	notype
	85	output_current_84	notype
	86	output_current_85	notype
	87	output_current_86	notype
	88	output_current_87	notype
	89	output_current_88	notype
	90	output_current_89	notype
	91	output_current_90	notype
	92	output_current_91	notype
	93	output_current_92	notype
	94	output_current_93	notype
	95	output_current_94	notype
	96	output_current_95	notype
	97	output_current_96	notype
	98	output_current_97	notype
	99	output_current_98	notype
	100	output_current_99	notype
Values:
 0	1.300000000000000e+00
	-8.561641673399123e-05
	-1.270924945145913e-04
	-8.342609589262473e-05
	-3.062418200971972e-05
	-3.105022836069615e-05
	-5.836682699655871e-05
	-6.018217174608154e-05
	-4.413848626871886e-05
	-3.958654064273315e-05
	-1.112022210425501e-04
	-8.178378807510711e-05
	-5.477145646748394e-05
	-7.327388123340439e-04
	-7.203464612998145e-04
	-1.626947396249356e-04
	-3.337892427734968e-04
	-9.110675235068921e-05
	-3.380222976523406e-04
	-2.115752642528612e-04
	-4.987656294919152e-05
	-7.930341973383381e-05
	-5.448938175667273e-05
	-2.900231617364302e-05
	-5.780989367765166e-04
	-1.192814874650949e-04
	-5.745179679217394e-05
	-1.055994042209463e-04
	-3.822493710448072e-05
	-3.979148260890852e-05
	-1.144986570833506e-04
	-3.479687545049348e-05
	-1.766184559715001e-04
	-1.606600408265990e-04
	-2.856663447459162e-04
	-1.021412520535447e-04
	-6.356412271535383e-05
	-2.344976192392156e-04
	-7.961361951636103e-05
	-1.765932469699472e-04
	-1.830550468151504e-05
	-2.629095396250447e-04
	-2.189942983898963e-04
	-1.355843423644920e-04
	-7.699524177950945e-05
	-7.958715110556458e-05
	-1.921587593906038e-04
	-1.113359075072262e-04
	-9.293754134331866e-05
	-1.218651551199157e-04
	-3.701228906693999e-05
	-7.705250569534083e-04
	-3.589794069641661e-04
	-1.183014346206601e-04
	-2.802704318627391e-04
	-3.654470476233129e-05
	-2.477860104599383e-05
	-3.573222620567584e-05
	-3.878880550090003e-04
	-2.907309289146287e-05
	-2.322077252703281e-05
	-5.944529764267958e-05
	-3.106341156522419e-04
	-7.648344284294506e-05
	-4.671225906083265e-04
	-1.511498478462547e-04
	-3.859850807030885e-04
	-2.034618307167335e-05
	-8.068241040548596e-05
	-1.436842728130827e-04
	-3.332609709028045e-05
	-2.146731421098780e-04
	-5.665184640846199e-05
	-2.088626736840293e-04
	-1.751390022591837e-04
	-6.132942764747185e-05
	-3.014692141756203e-05
	-4.475060443737133e-04
	-4.514547399109281e-04
	-2.775618311579020e-04
	-2.566992972352633e-04
	-6.298037091845288e-05
	-4.787132322492393e-05
	-6.615172992718854e-05
	-6.002940245580790e-04
	-1.260767323874035e-04
	-3.313554985950873e-05
	-1.589420539627184e-04
	-1.148233799708187e-04
	-6.090611695541703e-05
	-4.239852913201503e-05
	-7.248814742899512e-05
	-5.521288634624533e-05
	-1.725885025172236e-04
	-1.439631209382286e-04
	-8.313964447448363e-05
	-1.374931852399230e-04
	-5.239048674055002e-04
	-1.425807909238852e-04
	-1.335476503688815e-04
	-2.757369515007935e-04

 1	1.250000000000000e+00
	1.975710195523811e+01
	1.762282902504665e+01
	1.772704775445874e+01
	1.975619722879157e+01
	1.893134553694956e+01
	1.854323256623124e+01
	1.830364041728941e+01
	2.132875364798358e+01
	2.093894416864417e+01
	1.322955896602279e+01
	1.551432925404883e+01
	1.556309125308464e+01
	8.628666586972360e+00
	1.302298170359224e+01
	1.597401524420800e+01
	1.730980154887943e+01
	1.927364178296379e+01
	1.215266530643980e+01
	1.641052767619410e+01
	2.034129020895073e+01
	1.619938640979972e+01
	1.958244672832336e+01
	2.179535976994801e+01
	8.155554428446871e+00
	1.869067546766100e+01
	1.978162222071242e+01
	1.455563873441375e+01
	2.001712954929208e+01
	2.067480136744119e+01
	1.810411612983808e+01
	2.227734131659588e+01
	1.409974886210780e+01
	1.366107870367193e+01
	1.686484190921607e+01
	1.776225562602398e+01
	1.990249562416717e+01
	9.698719019613639e+00
	1.867740481935505e+01
	1.215156833700611e+01
	2.161677911663440e+01
	8.413812978582541e+00
	4.604608854661199e+00
	1.548801822604494e+01
	1.903412102986085e+01
	1.132320827750694e+01
	1.394844232710871e+01
	1.650136021176703e+01
	1.872748834890088e+01
	8.579161660337773e+00
	2.170434437034734e+01
	4.936553434600754e+00
	1.370677184559660e+01
	1.831809688633210e+01
	1.637058812458976e+01
	2.188150604116000e+01
	2.043837313477591e+01
	2.088396957544876e+01
	1.018578116431835e+01
	2.002495284716792e+01
	2.110714566303309e+01
	1.981353660618530e+01
	1.607209635627518e+01
	1.991937067346780e+01
	5.288213762333349e+00
	1.510988246512454e+01
	1.218352359280001e+01
	2.269166635268487e+01
	1.393920509512765e+01
	1.765904867799192e+01
	2.148910212181401e+01
	1.398463106793563e+01
	1.987106057403480e+01
	6.351335341804598e+00
	1.249836733403960e+01
	1.905773689521266e+01
	2.094922542665405e+01
	1.566491202747294e+01
	1.539159901485596e+01
	1.760703571142101e+01
	5.594481868886198e+00
	1.761785183955651e+01
	2.005732811165457e+01
	1.944216634312303e+01
	4.427938807297083e+00
	1.509507458741059e+01
	2.097426319236720e+01
	1.816748883653151e+01
	1.962467596613830e+01
	1.962985536585818e+01
	2.174455751556906e+01
	1.943278082416032e+01
	2.043943506084902e+01
	1.272678446375720e+01
	1.869499460732150e+01
	1.878169045518331e+01
	1.715894355325091e+01
	1.026581145265396e+01
	1.728981038301089e+01
	1.859756300710315e+01
	1.602994140109584e+01

 2	1.200000000000000e+00
	3.405552348410140e+01
	3.110730948222614e+01
	2.927130334546245e+01
	3.409503582573608e+01
	3.052437977695867e+01
	3.241169507748818e+01
	3.210295190152288e+01
	3.607845128571901e+01
	3.560460366727920e+01
	2.097780091693882e+01
	2.521783866500475e+01
	2.487355038517137e+01
	1.347343765255825e+01
	2.252777601948267e+01
	2.774571645500299e+01
	3.064293478125500e+01
	3.229732497468489e+01
	2.037565812038154e+01
	2.820226908448794e+01
	3.484816710951251e+01
	2.623335972145452e+01
	3.383266214130285e+01
	3.666180323438905e+01
	1.265994423405806e+01
	3.261362539008252e+01
	3.410530029049688e+01
	2.342363720989407e+01
	3.441437770014890e+01
	3.526520312158166e+01
	3.178850169665258e+01
	3.686110419927856e+01
	2.343726563693808e+01
	2.215418198196588e+01
	2.970823678403577e+01
	3.131473132760541e+01
	3.426022964213814e+01
	1.502659267021110e+01
	3.144944665089272e+01
	1.935890536285470e+01
	3.645165959788137e+01
	1.255731016427432e+01
	5.946782721815910e+00
	2.597583137927805e+01
	3.309687497881925e+01
	1.704593849626707e+01
	2.301795250414258e+01
	2.781289388365839e+01
	3.266431501214306e+01
	1.205896045066053e+01
	3.653806994446430e+01
	6.886174177278721e+00
	2.342595957296762e+01
	3.209114754593699e+01
	2.926331343286372e+01
	3.675828944873366e+01
	3.500564193846187e+01
	3.555386446011180e+01
	1.620011086786010e+01
	3.445167167339183e+01
	3.584782427002234e+01
	3.413679605733175e+01
	2.832082035889027e+01
	3.427527664700419e+01
	7.314444536406402e+00
	2.544846574380460e+01
	2.012058543607309e+01
	3.772380587246937e+01
	2.165099072390549e+01
	3.115583092714539e+01
	3.628748666799179e+01
	2.301540472859649e+01
	3.421343041200113e+01
	8.673218092182175e+00
	2.034708848875667e+01
	3.312445060232525e+01
	3.562538823043484e+01
	2.818972847780984e+01
	2.687360490481825e+01
	3.107791371243125e+01
	7.360082018098568e+00
	2.863606082144886e+01
	3.446022829350741e+01
	3.364119405124127e+01
	5.972900229535803e+00
	2.457312359579675e+01
	3.563518680612179e+01
	3.188083635977199e+01
	3.383312293675153e+01
	3.388995014975016e+01
	3.656114988561873e+01
	3.362784105044938e+01
	3.496001878910276e+01
	1.995719083269093e+01
	3.261602764058433e+01
	3.274905597672965e+01
	3.044116231872961e+01
	1.686070685206435e+01
	2.958279500690341e+01
	3.204397516892027e+01
	2.874920242490128e+01

 3	1.150000000000000e+00
	4.302588178684615e+01
	4.047263824778769e+01
	3.513989961170111e+01
	4.313501414917545e+01
	3.573033523237602e+01
	4.165836375535133e+01
	4.143444937786990e+01
	4.455197446699525e+01
	4.424213424473415e+01
	2.415691622042939e+01
	2.975909123258645e+01
	2.886041717722106e+01
	1.530433243046407e+01
	2.857706689276228e+01
	3.537928027368131e+01
	4.001317365645573e+01
	3.943663911989363e+01
	2.488673045724071e+01
	3.549303112638635e+01
	4.369547052189299e+01
	3.084034654637132e+01
	4.286446682383750e+01
	4.497318264804102e+01
	1.431102777092654e+01
	4.183096064403792e+01
	4.309795600188244e+01
	2.736179519132603e+01
	4.333826796137745e+01
	4.398574877340685e+01
	4.108984008766459e+01
	4.437037246454896e+01
	2.834230247490254e+01
	2.607958542009438e+01
	3.855451325564946e+01
	4.067877724020508e+01
	4.321222672976511e+01
	1.695929136699605e+01
	3.861982854795176e+01
	2.239071443423980e+01
	4.484340362772080e+01
	1.380133614680475e+01
	6.176341226469054e+00
	3.174246169052302e+01
	4.226535793705726e+01
	1.884013508307580e+01
	2.760925527444009e+01
	3.418765969252519e+01
	4.187391336703608e+01
	1.285567572729789e+01
	4.486244326920574e+01
	7.318334680651330e+00
	2.927820811451324e+01
	4.136383695389247e+01
	3.867139092579054e+01
	4.502279897937184e+01
	4.387609764128307e+01
	4.424271618564020e+01
	1.870726287955121e+01
	4.341981802379654e+01
	4.447768043050818e+01
	4.310273030645479e+01
	3.676694099592152e+01
	4.320959571105839e+01
	7.748723993851979e+00
	3.125110428015693e+01
	2.415428612359723e+01
	4.565276567009436e+01
	2.449110163835113e+01
	4.051174064549895e+01
	4.471853414524367e+01
	2.752403907356482e+01
	4.316454788120660e+01
	9.147857766260946e+00
	2.404868607768645e+01
	4.227873058190289e+01
	4.426998887022918e+01
	3.756079682707726e+01
	3.449144471614953e+01
	4.043429429905713e+01
	7.678340540218966e+00
	3.379704105268850e+01
	4.336137719068277e+01
	4.270207901109924e+01
	6.274837192858998e+00
	2.904291739083340e+01
	4.423673764502450e+01
	4.117949573058909e+01
	4.275441468035591e+01
	4.289894876358374e+01
	4.482850426294240e+01
	4.268989365108569e+01
	4.375137608571451e+01
	2.275385295207478e+01
	4.182553629264105e+01
	4.196602836910660e+01
	3.985221135593183e+01
	2.011579178337088e+01
	3.703046043882462e+01
	4.046200679956851e+01
	3.814657627675567e+01

 4	1.100000000000000e+00
	4.738481388855391e+01
	4.595132114327411e+01
	3.718018296285791e+01
	4.756446927748053e+01
	3.729265183580102e+01
	4.667578865771588e+01
	4.662903424167575e+01
	4.809541157382164e+01
	4.800490895474474e+01
	2.502942403426797e+01
	3.118166299181154e+01
	2.999957823828121e+01
	1.577471574251525e+01
	3.158612855861612e+01
	3.931106727759342e+01
	4.561621729485578e+01
	4.220546210309193e+01
	2.663272022811278e+01
	3.893989416400324e+01
	4.778460740131884e+01
	3.225386396620185e+01
	4.733339619189103e+01
	4.830246808542986e+01
	1.472679555826213e+01
	4.676852951273833e+01
	4.747197944500892e+01
	2.852754489784514e+01
	4.758149335599114e+01
	4.788015652726352e+01
	4.631969033746034e+01
	4.703669259385149e+01
	3.012317674804931e+01
	2.729081913633701e+01
	4.365078863400890e+01
	4.610367272771081e+01
	4.751422414535182e+01
	1.744297714014690e+01
	4.150585297795807e+01
	2.324099143061371e+01
	4.826618186727811e+01
	1.408802401942945e+01
	6.234075858641345e+00
	3.398506002522117e+01
	4.703990095823642e+01
	1.926046485458636e+01
	2.919356554426707e+01
	3.676476676027323e+01
	4.679047051682830e+01
	1.303607015632272e+01
	4.821519585030895e+01
	7.416161523506916e+00
	3.191649142048319e+01
	4.648617325819175e+01
	4.469414250831815e+01
	4.830101342384509e+01
	4.796370956230197e+01
	4.806368576155354e+01
	1.940399343734224e+01
	4.770498093225901e+01
	4.819877224616041e+01
	4.744196795157096e+01
	4.164138384782444e+01
	4.748867360846592e+01
	7.847637356285866e+00
	3.358018587345125e+01
	2.555307231604832e+01
	4.856636726498481e+01
	2.521174846672504e+01
	4.596627967120865e+01
	4.819750023530612e+01
	2.905159139805855e+01
	4.747361953497380e+01
	9.257698899589606e+00
	2.521723977933193e+01
	4.702951252916025e+01
	4.803474462179193e+01
	4.383415882023515e+01
	3.858501912301724e+01
	4.590989566029616e+01
	7.755727561667078e+00
	3.541801606898876e+01
	4.757251629244376e+01
	4.724097833913240e+01
	6.345498073285355e+00
	3.045475554515516e+01
	4.796039127761328e+01
	4.638518299976847e+01
	4.709588778135845e+01
	4.733080655053463e+01
	4.812990737412641e+01
	4.723282890933909e+01
	4.776455519332236e+01
	2.348589914997253e+01
	4.675171763829627e+01
	4.687344803709637e+01
	4.556244748134785e+01
	2.120082051928433e+01
	4.042856669113793e+01
	4.453481710683851e+01
	4.429754761399278e+01

 5	1.050000000000000e+00
	4.893632291361367e+01
	4.839882965547524e+01
	3.777100870589606e+01
	4.915422926230276e+01
	3.773950493568285e+01
	4.869890865241092e+01
	4.879327205433836e+01
	4.921334362806371e+01
	4.922539176095437e+01
	2.528103412554293e+01
	3.158676841766121e+01
	3.032653298779865e+01
	1.591270334120373e+01
	3.267791971465085e+01
	4.079631895151630e+01
	4.820215072309873e+01
	4.304092495363999e+01
	2.715588440446726e+01
	4.013134119234488e+01
	4.917387154110882e+01
	3.265681888865550e+01
	4.895352554349503e+01
	4.932756737689465e+01
	1.485013745012882e+01
	4.872741417902802e+01
	4.903001922222736e+01
	2.886034348696838e+01
	4.906064842021603e+01
	4.916720651170891e+01
	4.852937945088853e+01
	4.781783305700914e+01
	3.064348358708478e+01
	2.763494147408913e+01
	4.587687454917378e+01
	4.849267938318927e+01
	4.902901341733660e+01
	1.758703709630119e+01
	4.239389527637034e+01
	2.348482687957853e+01
	4.933028491095268e+01
	1.418070445255784e+01
	6.259843619360779e+00
	3.466057276579198e+01
	4.887053303421693e+01
	1.939424461294605e+01
	2.964989524889723e+01
	3.755740550123472e+01
	4.873288418754448e+01
	1.310322967226687e+01
	4.924953793679614e+01
	7.452995675153243e+00
	3.278932978598073e+01
	4.859937690391940e+01
	4.779008189424641e+01
	4.930507510202565e+01
	4.934897144408431e+01
	4.931168716883465e+01
	1.960369391701498e+01
	4.920544320669712e+01
	4.939696562572885e+01
	4.898052901299715e+01
	4.377506510089974e+01
	4.899015795301401e+01
	7.885590216100829e+00
	3.429273840903271e+01
	2.595603604821014e+01
	4.943070563917605e+01
	2.542696577444853e+01
	4.839125446908302e+01
	4.928649236178757e+01
	2.948977644254454e+01
	4.899359795861123e+01
	9.301264409657986e+00
	2.554939913231458e+01
	4.884370741811868e+01
	4.925492858530011e+01
	4.731152157939813e+01
	4.021234232936838e+01
	4.835775226543371e+01
	7.788854547050201e+00
	3.588098616100384e+01
	4.903376079091852e+01
	4.890789387599487e+01
	6.374114007240244e+00
	3.085635365930074e+01
	4.916314339092811e+01
	4.857168988756447e+01
	4.864313574749930e+01
	4.892774788438272e+01
	4.914428966406280e+01
	4.890255652840320e+01
	4.911405771281484e+01
	2.369997226668932e+01
	4.870194679766193e+01
	4.880569667270463e+01
	4.825668994073041e+01
	2.151001040455284e+01
	4.156719752592721e+01
	4.597663378421140e+01
	4.757856459046330e+01

 6	1.000000000000000e+00
	4.945302220966691e+01
	4.927270119464006e+01
	3.798700323421125e+01
	4.968439898742332e+01
	3.791640056964845e+01
	4.938826587046544e+01
	4.953923159120317e+01
	4.959494620989432e+01
	4.963782846018321e+01
	2.538649115938797e+01
	3.174313488297793e+01
	3.046034538311832e+01
	1.597303562166259e+01
	3.303862750880879e+01
	4.129165722797489e+01
	4.914415683885971e+01
	4.333252751036014e+01
	2.733751968302285e+01
	4.052644990466033e+01
	4.963796047293464e+01
	3.281444748469420e+01
	4.949373374512917e+01
	4.968284189038174e+01
	1.490514034365505e+01
	4.939105179146801e+01
	4.954890284472515e+01
	2.899362763379362e+01
	4.955375363251222e+01
	4.959991587287320e+01
	4.929588866565103e+01
	4.810155505843806e+01
	3.082916028904030e+01
	2.776876737218756e+01
	4.666076405298973e+01
	4.933844120118790e+01
	4.953371937535967e+01
	1.765154697466916e+01
	4.270026579365933e+01
	2.358563218755796e+01
	4.969661885725505e+01
	1.422657652642989e+01
	6.276368775530016e+00
	3.489559868675302e+01
	4.948537149441525e+01
	1.945919305002420e+01
	2.981693076019136e+01
	3.782932937626375e+01
	4.939030113115805e+01
	1.314086694722627e+01
	4.960647188134021e+01
	7.473843406377751e+00
	3.307919587004771e+01
	4.932474186587331e+01
	4.902167947961125e+01
	4.965408255758371e+01
	4.981226147395337e+01
	4.973276642627686e+01
	1.968659770176275e+01
	4.970571828667031e+01
	4.980310803561535e+01
	4.949318729669753e+01
	4.452670962980763e+01
	4.949003659173150e+01
	7.907400447620949e+00
	3.453737850648512e+01
	2.610312742428768e+01
	4.974066575897523e+01
	2.552311031925629e+01
	4.925474258260596e+01
	4.966006175991574e+01
	2.965161302660117e+01
	4.950008589643413e+01
	9.326949227648779e+00
	2.567703746658712e+01
	4.945247379428350e+01
	4.966682962027555e+01
	4.881054660007405e+01
	4.076188222485681e+01
	4.923179489322443e+01
	7.809461440396858e+00
	3.605976149223403e+01
	4.952101181058752e+01
	4.946420655990453e+01
	6.391214093418463e+00
	3.101029601973795e+01
	4.957028524135969e+01
	4.932797311842096e+01
	4.915815967781317e+01
	4.945977695133656e+01
	4.949577071153549e+01
	4.945980805855146e+01
	4.956567753413698e+01
	2.379259132408943e+01
	4.936168146066344e+01
	4.945901061125576e+01
	4.925381784634271e+01
	2.162471239373996e+01
	4.194637021375479e+01
	4.645582222940776e+01
	4.893355224207512e+01

 7	9.500000000000001e-01
	4.966960591642773e+01
	4.960281254720849e+01
	3.809658533142921e+01
	4.990621596244471e+01
	3.801254418499224e+01
	4.965929876319134e+01
	4.982822574697236e+01
	4.976937158890490e+01
	4.982247226083042e+01
	2.544769945724305e+01
	3.182731099949819e+01
	3.053609279232142e+01
	1.600939093380224e+01
	3.318690660664060e+01
	4.149164893342593e+01
	4.949630973131048e+01
	4.347176025631212e+01
	2.742474574322180e+01
	4.069466994129729e+01
	4.983865138310020e+01
	3.290020502938734e+01
	4.971797510434656e+01
	4.984917901178741e+01
	1.493886041621997e+01
	4.965361375615894e+01
	4.976642864746704e+01
	2.906798609947142e+01
	4.976339573613308e+01
	4.979092873161643e+01
	4.959104536919092e+01
	4.824206116203463e+01
	3.092140168177611e+01
	2.784158512866668e+01
	4.695830486568580e+01
	4.965921587467628e+01
	4.974692680967743e+01
	1.769113220440694e+01
	4.284407795046184e+01
	2.364364012785595e+01
	4.986640681459544e+01
	1.425688673247763e+01
	6.289272742356945e+00
	3.500821534139099e+01
	4.973281143547332e+01
	1.950130814159200e+01
	2.990243489071464e+01
	3.795653247393475e+01
	4.965101163389389e+01
	1.316777152954350e+01
	4.977260261559936e+01
	7.488913295198522e+00
	3.320598645019509e+01
	4.960649142804084e+01
	4.947769177167773e+01
	4.981818642753148e+01
	5.001327855788402e+01
	4.992057363876383e+01
	1.973458880772565e+01
	4.991810178949343e+01
	4.998623068695751e+01
	4.970880578583116e+01
	4.481153859984535e+01
	4.970129053130179e+01
	7.923324461914759e+00
	3.465230101504886e+01
	2.617839010969755e+01
	4.989173789980185e+01
	2.558154852734442e+01
	4.958144986567416e+01
	4.983225762079675e+01
	2.973525736994342e+01
	4.971378254215244e+01
	9.345985873118831e+00
	2.574586783177192e+01
	4.969785319783836e+01
	4.985100532574728e+01
	4.937466355559332e+01
	4.097816450109558e+01
	4.956153571126490e+01
	7.825234077860760e+00
	3.615548640332773e+01
	4.972872610993582e+01
	4.969336532768039e+01
	6.403998957109184e+00
	3.109269314880694e+01
	4.975306374897706e+01
	4.961977090047701e+01
	4.937374976015426e+01
	4.968115426260029e+01
	4.966030247168353e+01
	4.968922317866902e+01
	4.976231067410587e+01
	2.384772539076137e+01
	4.962245695602991e+01
	4.971859410600422e+01
	4.962549087062298e+01
	2.168451795331013e+01
	4.211129346788677e+01
	4.665707171115814e+01
	4.943779235414003e+01

 8	9.000000000000001e-01
	4.978855949914563e+01
	4.976184289331737e+01
	3.816689203389473e+01
	5.002800877881809e+01
	3.807534496977892e+01
	4.979830469229157e+01
	4.997370008344610e+01
	4.987144552497753e+01
	4.992929300340776e+01
	2.549129009547183e+01
	3.188399350671735e+01
	3.058842654031307e+01
	1.603619824952019e+01
	3.326777602735524e+01
	4.159817323822487e+01
	4.966207895116311e+01
	4.355690946178034e+01
	2.747949097475820e+01
	4.078928928776546e+01
	4.995200691564972e+01
	3.295804936007639e+01
	4.984004808974464e+01
	4.994765594840741e+01
	1.496404090500433e+01
	4.978942108832974e+01
	4.988601418469624e+01
	2.911938971482137e+01
	4.988000026337567e+01
	4.990032384027216e+01
	4.973808243399509e+01
	4.832687594903489e+01
	3.098056153053117e+01
	2.789137413608013e+01
	4.710334575483031e+01
	4.981506973574619e+01
	4.986491995747711e+01
	1.772062194550740e+01
	4.293117702995489e+01
	2.368493806542476e+01
	4.996643312931218e+01
	1.428055994988830e+01
	6.300409734456749e+00
	3.507831772858738e+01
	4.986340975705970e+01
	1.953338820106045e+01
	2.995850196266074e+01
	3.803403379449297e+01
	4.978620466684338e+01
	1.318955092154410e+01
	4.987068373476025e+01
	7.501376847668991e+00
	3.327940744410557e+01
	4.974870282789621e+01
	4.967874906269864e+01
	4.991550905795918e+01
	5.012717213855002e+01
	5.002911213457207e+01
	1.976905730970667e+01
	5.003624207323542e+01
	5.009278437368391e+01
	4.982759674291085e+01
	4.495018832141638e+01
	4.981820033794814e+01
	7.936569100998152e+00
	3.472280659119493e+01
	2.622793272950494e+01
	4.998182752690479e+01
	2.562387474315639e+01
	4.973931603005242e+01
	4.993351776050401e+01
	2.979047116670550e+01
	4.983183932674500e+01
	9.361893084069637e+00
	2.579282328763442e+01
	4.982751152842824e+01
	4.995749540787813e+01
	4.961283190135302e+01
	4.108997150626109e+01
	4.972009023510894e+01
	7.838655351462796e+00
	3.621875759377978e+01
	4.984449225041909e+01
	4.981718973804229e+01
	6.414783405091391e+00
	3.114812819600757e+01
	4.985877130656794e+01
	4.976566499170516e+01
	4.949208639902936e+01
	4.980189992731575e+01
	4.975767220593251e+01
	4.981312490728038e+01
	4.987383785914033e+01
	2.388767476059613e+01
	4.975717780627458e+01
	4.985359497129043e+01
	4.979861908763249e+01
	2.172449731131614e+01
	4.220570390445254e+01
	4.676822007134741e+01
	4.965531921138346e+01

 9	8.500000000000001e-01
	4.986737956499433e+01
	4.985869750246492e+01
	3.821768362081025e+01
	5.010889561425061e+01
	3.811737924152886e+01
	4.988694218994787e+01
	5.006548691322867e+01
	4.993918872125405e+01
	5.000077730659422e+01
	2.552569813334300e+01
	3.192676700941740e+01
	3.062750809031513e+01
	1.605838878494413e+01
	3.332251689237842e+01
	4.166862038252738e+01
	4.976102731829232e+01
	4.361636996641580e+01
	2.752034577850875e+01
	4.085421756016596e+01
	5.002809443155581e+01
	3.300104881760399e+01
	4.992062558847573e+01
	5.001201800041854e+01
	1.498506491846895e+01
	4.987659203928339e+01
	4.996543760663551e+01
	2.915886160853804e+01
	4.995763864532130e+01
	4.997348897222646e+01
	4.982994962104146e+01
	4.837939867997909e+01
	3.102497833129070e+01
	2.793004718722354e+01
	4.719267342114756e+01
	4.991068083175709e+01
	4.994344024255811e+01
	1.774507971485147e+01
	4.299214499791488e+01
	2.371794635201425e+01
	5.003224124235897e+01
	1.430075136716648e+01
	6.310467522705268e+00
	3.512965498168809e+01
	4.994835062856282e+01
	1.955938912879531e+01
	3.000113308664195e+01
	3.808976921348528e+01
	4.987307184449713e+01
	1.320785781101807e+01
	4.993512988512314e+01
	7.512454664668211e+00
	3.333119465109705e+01
	4.983841915461549e+01
	4.979139983214958e+01
	4.997889854832169e+01
	5.020372805666874e+01
	5.010205591135757e+01
	1.979706212271908e+01
	5.011513595896424e+01
	5.016424569847644e+01
	4.990639029912413e+01
	4.503561632426215e+01
	4.989597968431338e+01
	7.948365141132634e+00
	3.477414815326223e+01
	2.626600031814747e+01
	5.003720729886119e+01
	2.565634251757267e+01
	4.983568359974997e+01
	5.000049847485116e+01
	2.983259836519597e+01
	4.991022099088121e+01
	9.375926399568220e+00
	2.582954173086785e+01
	4.991180249082783e+01
	5.002890109722259e+01
	4.973935568501663e+01
	4.116241950899262e+01
	4.981652668474209e+01
	7.850599681863846e+00
	3.626409099866069e+01
	4.992157297762397e+01
	4.989863157784497e+01
	6.424479167383605e+00
	3.119032905621647e+01
	4.992902651665561e+01
	4.985714402310024e+01
	4.957061618167153e+01
	4.988163689916177e+01
	4.982129930381461e+01
	4.989461222035230e+01
	4.994852249787913e+01
	2.391962086043561e+01
	4.984356782109911e+01
	4.994059697904047e+01
	4.990110322573371e+01
	2.175564417638371e+01
	4.227094237382097e+01
	4.684277826592573e+01
	4.977417304775867e+01

 10	8.000000000000000e-01
	4.992423098559460e+01
	4.992799135182264e+01
	3.825417434042636e+01
	5.016758879748716e+01
	3.814146439547368e+01
	4.995137801691780e+01
	5.013241342645847e+01
	4.998298348243293e+01
	5.004916756730718e+01
	2.555320760082834e+01
	3.195928387317770e+01
	3.065495855572521e+01
	1.607793814963109e+01
	3.336505333221781e+01
	4.172193364231384e+01
	4.983101986105049e+01
	4.365806870431548e+01
	2.755400475359178e+01
	4.090414437395791e+01
	5.008236263563952e+01
	3.303207405934145e+01
	4.997896425324366e+01
	5.005085179383875e+01
	1.500369416858978e+01
	4.994024211569994e+01
	5.002301628775061e+01
	2.918918588122393e+01
	5.001318549173548e+01
	5.002383464275330e+01
	4.989637736367764e+01
	4.840676984293427e+01
	3.106106992003567e+01
	2.796149057570762e+01
	4.725722731613075e+01
	4.997940263667803e+01
	5.000001249176167e+01
	1.776641588688960e+01
	4.303595297588795e+01
	2.374544154925803e+01
	5.007317824752577e+01
	1.431860845723830e+01
	6.319567482000049e+00
	3.517019572473238e+01
	5.001052693426604e+01
	1.957954199617996e+01
	3.003585797478354e+01
	3.813294297487914e+01
	4.993639972800806e+01
	1.322220514611680e+01
	4.997488598222394e+01
	7.522679898720264e+00
	3.337232507256223e+01
	4.990357942540936e+01
	4.986785181340398e+01
	5.001660270233580e+01
	5.025824471336944e+01
	5.015214692841402e+01
	1.982127419195142e+01
	5.017203937060792e+01
	5.021244462176909e+01
	4.996306396661421e+01
	4.509756299387507e+01
	4.995202671712637e+01
	7.959227655231129e+00
	3.481498926605252e+01
	2.629777750420077e+01
	5.006595441661948e+01
	2.567921169576728e+01
	4.990468637600652e+01
	5.004297544805895e+01
	2.986691187541581e+01
	4.996648738611327e+01
	9.388309956679828e+00
	2.586012240291262e+01
	4.997332673947123e+01
	5.007762618870889e+01
	4.982183770682776e+01
	4.121681062018443e+01
	4.988553634137057e+01
	7.861103225971457e+00
	3.629417551647384e+01
	4.997652521210685e+01
	4.995775019605284e+01
	6.433485784880554e+00
	3.122339960754121e+01
	4.997564065682388e+01
	4.992352236200684e+01
	4.962758874491784e+01
	4.993928447690637e+01
	4.985969292534934e+01
	4.995380574681382e+01
	5.000102601443804e+01
	2.394550629463517e+01
	4.990668231370766e+01
	5.000422267467620e+01
	4.997330988612720e+01
	2.178210065445691e+01
	4.232069188944763e+01
	4.689807209880878e+01
	4.985335343204783e+01

 11	7.500000000000001e-01
	4.996394372436394e+01
	4.998206962912609e+01
	3.827677289379265e+01
	5.020916062889501e+01
	3.814928899687712e+01
	5.000035270272436e+01
	5.018456801651099e+01
	5.000623413475824e+01
	5.007763000116412e+01
	2.557285765757969e+01
	3.198129131191648e+01
	3.067036958710593e+01
	1.609565185796869e+01
	3.340082646813682e+01
	4.176500630313838e+01
	4.988567354961382e+01
	4.368345107085849e+01
	2.758306781509455e+01
	4.094408007450085e+01
	5.011822726333449e+01
	3.305078534283543e+01
	5.002043832080111e+01
	5.006883395365961e+01
	1.502064281853205e+01
	4.998873870929702e+01
	5.006369418910695e+01
	2.920979848329954e+01
	5.005077752165020e+01
	5.005474820053951e+01
	4.994773059740663e+01
	4.841470205323975e+01
	3.109070529219683e+01
	2.798591954110083e+01
	4.730819863287472e+01
	5.003314029653991e+01
	5.003911404626927e+01
	1.778508578889290e+01
	4.306356106561950e+01
	2.376743944718248e+01
	5.009327016415176e+01
	1.433417655742164e+01
	6.327201521736996e+00
	3.520189696803414e+01
	5.005725945519284e+01
	1.959249649912927e+01
	3.006399122186456e+01
	3.816571507020677e+01
	4.998435336818962e+01
	1.323115797250546e+01
	4.999411168948539e+01
	7.532278480678169e+00
	3.340702397003999e+01
	4.995385185880153e+01