Title: transistors characterization nmos transistor simulation testbench
Date: Fri Jul 24 16:14:00  2020
Plotname: DC transfer characteristic
Flags: real
No. Variables: 40
No. Points: 182
Variables:
	0	ng	voltage
	1	@m1[cbb]	capacitance
	2	@m1[cdb]	capacitance
	3	@m1[cdd]	capacitance
	4	@m1[cdg]	capacitance
	5	@m1[cds]	capacitance
	6	@m1[cgb]	capacitance
	7	@m1[cgd]	capacitance
	8	@m1[cgg]	capacitance
	9	@m1[cgs]	capacitance
	10	@m1[csb]	capacitance
	11	@m1[csd]	capacitance
	12	@m1[csg]	capacitance
	13	@m1[css]	capacitance
	14	@m1[gds]	admittance
	15	@m1[gm]	admittance
	16	@m1[gmbs]	admittance
	17	i(@m1[id])	current
	18	@m1[vbs]	voltage
	19	@m1[vds]	voltage
	20	@m1[vdsat]	voltage
	21	@m1[vgs]	voltage
	22	@m1[vth]	voltage
	23	index	notype dims=1
	24	m1#body	voltage
	25	m1#dbody	voltage
	26	m1#gate	voltage
	27	m1#sbody	voltage
	28	nb	voltage
	29	nbvec	voltage dims=14,13
	30	nd	voltage
	31	v-sweep	voltage
	32	i(vbs)	current
	33	vbs_length	notype dims=1
	34	vbs_point	voltage dims=1
	35	i(vds)	current
	36	i(vgs)	current
	37	vgs_length	notype dims=1
	38	vth	voltage dims=14,13
	39	vth_point	voltage dims=1
Values:
 0	1.000000000000000e-01
	2.045838386097339e-15
	-7.131835479373016e-19
	-1.613785560158632e-19
	-2.365715213073372e-18
	3.240277317026537e-18
	-2.044055829983579e-15
	3.957737807022325e-19
	2.054124039974811e-15
	-1.046398377193472e-17
	-1.069372565822505e-18
	-2.420417043353873e-19
	-3.547245883599088e-18
	4.858660153756883e-18
	5.047862897181405e-06
	6.896023488521676e-05
	1.948902077950293e-05
	2.730706813196561e-06
	9.145876074280492e-10
	1.300000000000000e+00
	3.905231265404997e-02
	1.000001382535165e-01
	3.005767002783434e-01
	1.400000000000000e+01
	9.145876074280492e-10
	4.671188036957837e-10
	1.000001382535165e-01
	4.572938037104491e-10
	0.000000000000000e+00
	0.000000000000000e+00
	1.300000000000000e+00
	1.000000000000000e-01
	2.445450288299254e-10
	1.400000000000000e+01
	-1.300000000000000e+00
	-2.738209966217762e-06
	7.258309613934755e-09
	1.300000000000000e+01
	3.005767002783434e-01
	5.679958267255152e-01

 1	2.000000000000000e-01
	1.951640042443915e-15
	-1.265869296081028e-17
	-3.020479670176040e-18
	-4.427950956783730e-17
	5.995868219882361e-17
	-1.920000469857519e-15
	7.080380908820255e-18
	2.055855191948826e-15
	-1.429351030001280e-16
	-1.898087962558611e-17
	-4.530317898559429e-18
	-6.639441142815839e-17
	8.990560895230396e-17
	4.579971747424706e-05
	6.209038250358364e-04
	1.701355552433358e-04
	2.874226038662936e-05
	8.898688389678565e-09
	1.300000000000000e+00
	4.295045068600525e-02
	2.000000727282679e-01
	3.005766981869949e-01
	0.000000000000000e+00
	8.898688389678565e-09
	4.459169194791101e-09
	2.000000727282679e-01
	4.449344194804493e-09
	0.000000000000000e+00
	0.000000000000000e+00
	1.300000000000000e+00
	2.000000000000000e-01
	2.373638572356140e-09
	0.000000000000000e+00
	0.000000000000000e+00
	-2.874845415300722e-05
	3.818234062258341e-09
	0.000000000000000e+00
	3.005766981869949e-01
	0.000000000000000e+00

 2	3.000000000000000e-01
	1.908239182492095e-15
	-1.661950154590681e-16
	-4.178166011394843e-17
	-6.125410480421444e-16
	8.205177236151609e-16
	-1.492846754992724e-15
	9.581204609269344e-17
	3.280694160324784e-15
	-1.883659451424754e-15
	-2.491974120403034e-16
	-6.266939740894171e-17
	-9.184642240764413e-16
	1.230331033525686e-15
	2.404657713516576e-04
	3.235210130594485e-03
	8.742361208079058e-04
	1.964504861355015e-04
	4.298476978857300e-08
	1.300000000000000e+00
	6.040409338368951e-02
	3.000000375394137e-01
	3.005766892585122e-01
	0.000000000000000e+00
	4.298476978857300e-08
	2.150220989411050e-08
	3.000000375394137e-01
	2.149238489411845e-08
	0.000000000000000e+00
	0.000000000000000e+00
	1.300000000000000e+00
	3.000000000000000e-01
	1.146326028552780e-08
	0.000000000000000e+00
	0.000000000000000e+00
	-1.964639270869611e-04
	1.970819219626607e-09
	0.000000000000000e+00
	3.005766892585122e-01
	0.000000000000000e+00

 3	4.000000000000000e-01
	1.881930979913090e-15
	-4.842361682588791e-16
	-1.253213136630017e-16
	-1.829350694247582e-15
	2.438908176169462e-15
	-6.716368745136678e-16
	3.027593027261999e-16
	6.252583767159003e-15
	-5.883706195371536e-15
	-7.260579371405427e-16
	-1.880426571479620e-16
	-2.742927642958055e-15
	3.657028237246560e-15
	5.683434851333760e-04
	7.433078086279198e-03
	2.017497985590564e-03
	7.362685520613666e-04
	7.912085319204502e-08
	1.300000000000000e+00
	9.475880218912212e-02
	4.000000185667373e-01
	3.005766797930542e-01
	0.000000000000000e+00
	7.912085319204502e-08
	3.957025159571099e-08
	4.000000185667373e-01
	3.956042659571319e-08
	0.000000000000000e+00
	0.000000000000000e+00
	1.300000000000000e+00
	4.000000000000000e-01
	2.109954920032910e-08
	0.000000000000000e+00
	0.000000000000000e+00
	-7.362906505519109e-04
	9.747537083049096e-10
	0.000000000000000e+00
	3.005766797930542e-01
	0.000000000000000e+00

 4	5.000000000000000e-01
	1.837189007547837e-15
	-5.640287908563638e-16
	-1.465897350687542e-16
	-2.127641907867285e-15
	2.838260433792403e-15
	-4.274996564997942e-16
	3.645626738435267e-16
	7.097802828419602e-15
	-7.034865845763335e-15
	-8.456605601916789e-16
	-2.201245557530694e-16
	-3.190069047983558e-15
	4.255854163928306e-15
	7.701943891662800e-04
	9.593812847616351e-03
	2.647105329847725e-03
	1.607204364081343e-03
	7.145828283391780e-08
	1.300000000000000e+00
	1.349290640886029e-01
	5.000000069497219e-01
	3.005766818001831e-01
	0.000000000000000e+00
	7.145828283391780e-08
	3.573896641667612e-08
	5.000000069497219e-01
	3.572914141667954e-08
	0.000000000000000e+00
	0.000000000000000e+00
	1.300000000000000e+00
	5.000000000000000e-01
	1.905619710329991e-08
	0.000000000000000e+00
	0.000000000000000e+00
	-1.607223876081360e-03
	3.648603988382071e-10
	0.000000000000000e+00
	3.005766818001831e-01
	0.000000000000000e+00

 5	6.000000000000000e-01
	1.806151492104337e-15
	-5.925671602726412e-16
	-1.538899874260195e-16
	-2.221619805815651e-15
	2.968076953514311e-15
	-3.251812680122962e-16
	3.887630873871018e-16
	7.394339478977256e-15
	-7.457921298352063e-15
	-8.884030638193997e-16
	-2.313070612305395e-16
	-3.330832413219570e-15
	4.450542538269510e-15
	8.643258840308448e-04
	1.018311662633519e-02
	2.861611585907805e-03
	2.603153620319623e-03
	4.561561008906631e-08
	1.300000000000000e+00
	1.746070588500496e-01
	5.999999968436831e-01
	3.005766885693928e-01
	0.000000000000000e+00
	4.561561008906631e-08
	2.281763004434728e-08
	5.999999968436831e-01
	2.280780504435482e-08
	0.000000000000000e+00
	0.000000000000000e+00
	1.300000000000000e+00
	6.000000000000000e-01
	1.216481769951751e-08
	0.000000000000000e+00
	0.000000000000000e+00
	-2.603165880700947e-03
	-1.657066359128656e-10
	0.000000000000000e+00
	3.005766885693928e-01
	0.000000000000000e+00

 6	7.000000000000000e-01
	1.782952162223627e-15
	-6.110314293150294e-16
	-1.584675525576044e-16
	-2.276082631599843e-15
	3.045581613472477e-15
	-2.558877939388400e-16
	4.044876931259842e-16
	7.567647905667477e-15
	-7.716247804854621e-15
	-9.160329389697578e-16
	-2.384508313650146e-16
	-3.412323048136020e-15
	4.566806818470793e-15
	9.231459661867641e-04
	1.028773493192974e-02
	2.936433499126763e-03
	3.628553387702255e-03
	2.427295891956588e-08
	1.300000000000000e+00
	2.130005417743694e-01
	6.999999826984092e-01
	3.005766941598696e-01
	0.000000000000000e+00
	2.427295891956588e-08
	1.214630445967711e-08
	6.999999826984092e-01
	1.213647945968805e-08
	0.000000000000000e+00
	0.000000000000000e+00
	1.300000000000000e+00
	7.000000000000000e-01
	6.473444050059760e-09
	0.000000000000000e+00
	0.000000000000000e+00
	-3.628559594816481e-03
	-9.083335125725789e-10
	0.000000000000000e+00
	3.005766941598696e-01
	0.000000000000000e+00

 7	7.999999999999999e-01
	1.764396538377557e-15
	-6.247026733984704e-16
	-1.617512659533614e-16
	-2.312157889709678e-15
	3.098611829061509e-15
	-2.032252968758852e-16
	4.160704616293130e-16
	7.681413084311159e-15
	-7.894258249064588e-15
	-9.364685681032016e-16
	-2.437031044482393e-16
	-3.466219282245304e-15
	4.646390954796745e-15
	9.718213042933467e-04
	1.026281000983615e-02
	2.966871208874997e-03
	4.656624309895878e-03
	1.139970544055286e-08
	1.300000000000000e+00
	2.504844735740737e-01
	7.999999569570435e-01
	3.005766975318797e-01
	0.000000000000000e+00
	1.139970544055286e-08
	5.709677720218871e-09
	7.999999569570435e-01
	5.699852720231864e-09
	0.000000000000000e+00
	0.000000000000000e+00
	1.300000000000000e+00
	7.999999999999999e-01
	3.040576453088212e-09
	0.000000000000000e+00
	0.000000000000000e+00
	-4.656626530285483e-03
	-2.259755216282855e-09
	0.000000000000000e+00
	3.005766975318797e-01
	0.000000000000000e+00

 8	8.999999999999999e-01
	1.748921289487644e-15
	-6.353812365204413e-16
	-1.642088738277869e-16
	-2.336881966529705e-15
	3.136472076877933e-15
	-1.611311198555084e-16
	4.250536605022664e-16
	7.758406838076951e-15
	-8.022329378723709e-15
	-9.524089331116940e-16
	-2.477718352539223e-16
	-3.503069891732817e-15
	4.703250660098434e-15
	1.017182250113019e-03
	1.019564023917347e-02
	2.979653284489537e-03
	5.679760560636039e-03
	4.820297454283478e-09
	1.300000000000000e+00
	2.874039033023509e-01
	8.999999072533701e-01
	3.005766992552848e-01
	0.000000000000000e+00
	4.820297454283478e-09
	2.419973727108852e-09
	8.999999072533701e-01
	2.410148727122894e-09
	0.000000000000000e+00
	0.000000000000000e+00
	1.300000000000000e+00
	8.999999999999999e-01
	1.286067655437187e-09
	0.000000000000000e+00
	0.000000000000000e+00
	-5.679760015235678e-03
	-4.869198065582392e-09
	0.000000000000000e+00
	3.005766992552848e-01
	0.000000000000000e+00

 9	9.999999999999999e-01
	1.735636618231385e-15
	-6.440160677797747e-16
	-1.660811310249838e-16
	-2.353944379389044e-15
	3.164041578193803e-15
	-1.263443713811034e-16
	4.322505710742885e-16
	7.810647162875268e-15
	-8.116553362568452e-15
	-9.652761790705072e-16
	-2.510261352126253e-16
	-3.528404447108336e-15
	4.744706761391468e-15
	1.061456076269812e-03
	1.010995891575306e-02
	2.983598852322127e-03
	6.695146928526663e-03
	1.850943222728513e-09
	1.300000000000000e+00
	3.239671017812124e-01
	9.999998120095737e-01
	3.005767000330761e-01
	0.000000000000000e+00
	1.850943222728513e-09
	9.352966113425041e-10
	9.999998120095737e-01
	9.254716113570200e-10
	0.000000000000000e+00
	0.000000000000000e+00
	1.300000000000000e+00
	9.999999999999999e-01
	4.942398597635086e-10
	0.000000000000000e+00
	0.000000000000000e+00
	-6.695143689824983e-03
	-9.869497379078052e-09
	0.000000000000000e+00
	3.005767000330761e-01
	0.000000000000000e+00

 10	1.100000000000000e+00
	1.723984262169099e-15
	-6.511791077608008e-16
	-1.675089503333455e-16
	-2.365568072076478e-15
	3.184256130170624e-15
	-9.687820333500694e-17
	4.381491592250736e-16
	7.845352397286565e-15
	-8.186623353176631e-15
	-9.759269510732908e-16
	-2.536870483155928e-16
	-3.545552758941192e-15
	4.775166758330075e-15
	1.105686523705513e-03
	1.001450534754834e-02
	2.982466110248956e-03
	7.701428095216758e-03
	6.676976349774332e-10
	1.300000000000000e+00
	3.602940717865313e-01
	1.099999633169396e+00
	3.005767003430136e-01
	0.000000000000000e+00
	6.676976349774332e-10
	3.436738174714015e-10
	1.099999633169396e+00
	3.338488174861062e-10
	0.000000000000000e+00
	0.000000000000000e+00
	1.300000000000000e+00
	1.100000000000000e+00
	1.787077027938425e-10
	0.000000000000000e+00
	0.000000000000000e+00
	-7.701421008743540e-03
	-1.925860672324919e-08
	0.000000000000000e+00
	3.005767003430136e-01
	0.000000000000000e+00

 11	1.200000000000000e+00
	1.713590332766968e-15
	-6.572411153694056e-16
	-1.685792457492775e-16
	-2.373193696956437e-15
	3.199014058075120e-15
	-7.143318248494723e-17
	4.430633725777660e-16
	7.867181344729005e-15
	-8.238811534821823e-15
	-9.849160349126149e-16
	-2.558965369792548e-16
	-3.556670898308026e-15
	4.797483470199895e-15
	1.150533743341351e-03
	9.913531378889432e-03
	2.978183777196576e-03
	8.697860851420419e-03
	3.133946822390855e-10
	1.300000000000000e+00
	3.964565040025565e-01
	1.199999303964119e+00
	3.005767004358194e-01
	0.000000000000000e+00
	3.133946822390855e-10
	1.665223411035563e-10
	1.199999303964119e+00
	1.566973411183175e-10
	0.000000000000000e+00
	0.000000000000000e+00
	1.300000000000000e+00
	1.200000000000000e+00
	8.422691532627013e-11
	0.000000000000000e+00
	0.000000000000000e+00
	-8.697847231274890e-03
	-3.654188378277023e-08
	0.000000000000000e+00
	3.005767004358194e-01
	0.000000000000000e+00

 12	1.300000000000000e+00
	1.704192419335163e-15
	-6.624553692243629e-16
	-1.693464723697178e-16
	-2.377804637044021e-15
	3.209606478638101e-15
	-4.911520483080311e-17
	4.472050789059573e-16
	7.879299788685655e-15
	-8.277389662760810e-15
	-9.926218452799973e-16
	-2.577501186589813e-16
	-3.563228471113774e-15
	4.813600435052753e-15
	1.196501258442886e-03
	9.809390507726952e-03
	2.971842830052101e-03
	9.684020732131893e-03
	4.810834329441463e-10
	1.300000000000000e+00
	4.324996023000938e-01
	1.299998708234491e+00
	3.005767003918957e-01
	0.000000000000000e+00
	4.810834329441463e-10
	2.503667164554579e-10
	1.299998708234491e+00
	2.405417164701923e-10
	0.000000000000000e+00
	0.000000000000000e+00
	1.300000000000000e+00
	1.300000000000000e+00
	1.289439155477385e-10
	0.000000000000000e+00
	0.000000000000000e+00
	-9.683995620804055e-03
	-6.781768925601117e-08
	0.000000000000000e+00
	3.005767003918957e-01
	0.000000000000000e+00

 13	1.000000000000000e-01
	1.949704209634800e-15
	-2.764303782223513e-19
	-6.586609916078085e-20
	-9.655650163784858e-19
	1.307861493761618e-18
	-1.949013289446452e-15
	1.643264340762152e-19
	1.954039463869221e-15
	-5.190500856844445e-18
	-4.144898101254409e-19
	-9.878797330350737e-20
	-1.447805947797499e-18
	1.961083731226585e-18
	2.571882560422105e-06
	3.519747769935994e-05
	9.509398345339309e-06
	1.339999399274963e-06
	-9.999999954954156e-02
	1.300000000000000e+00
	3.904906753521072e-02
	1.000001382535164e-01
	3.260947687031635e-01
	0.000000000000000e+00
	-9.999999954954156e-02
	-9.999999976419578e-02
	1.000001382535164e-01
	-9.999999977401269e-02
	-1.000000000000000e-01
	-1.000000000000000e-01
	1.300000000000000e+00
	1.000000000000000e-01
	1.208777904160296e-10
	0.000000000000000e+00
	0.000000000000000e+00
	-1.347378783972061e-06
	7.258309612200031e-09
	0.000000000000000e+00
	3.260947687031635e-01
	0.000000000000000e+00

 14	2.000000000000000e-01
	1.865981361750231e-15
	-5.545065586185230e-18
	-1.386539930819274e-18
	-2.032632541007356e-17
	2.725793092707806e-17
	-1.852121824572707e-15
	3.385871452385226e-18
	1.917132832499205e-15
	-6.839687937888313e-17
	-8.314471591338649e-18
	-2.079601848706999e-18
	-3.047808391385529e-17
	4.087215735390110e-17
	2.666537686133981e-05
	3.621452483767310e-04
	9.485601948204814e-05
	1.584784042697811e-05
	-9.999999493858333e-02
	1.300000000000000e+00
	4.137811638176904e-02
	2.000000727282642e-01
	3.260947675560866e-01
	0.000000000000000e+00
	-9.999999493858333e-02
	-9.999999745871667e-02
	2.000000727282642e-01
	-9.999999746853358e-02
	-1.000000000000000e-01
	-1.000000000000000e-01
	1.300000000000000e+00
	2.000000000000000e-01
	1.350466655170024e-09
	0.000000000000000e+00
	0.000000000000000e+00
	-1.585301092028065e-05
	3.818233869704035e-09
	0.000000000000000e+00
	3.260947675560866e-01
	0.000000000000000e+00

 15	3.000000000000000e-01
	1.810724012638522e-15
	-8.615347992359674e-17
	-2.262546141823571e-17
	-3.316937631444805e-16
	4.404727044863130e-16
	-1.595389178331311e-15
	5.248196659451644e-17
	2.566230369965719e-15
	-1.023323158228924e-15
	-1.291813543836137e-16
	-3.393559720153144e-17
	-4.973535860704602e-16
	6.604705376556052e-16
	1.670306757235332e-04
	2.252126755920607e-03
	5.812954140714052e-04
	1.244323901013524e-04
	-9.999996930724843e-02
	1.300000000000000e+00
	5.442962771377875e-02
	3.000000375392146e-01
	3.260947611797321e-01
	0.000000000000000e+00
	-9.999996930724843e-02
	-9.999998464304921e-02
	3.000000375392146e-01
	-9.999998465286614e-02
	-1.000000000000000e-01
	-1.000000000000000e-01
	1.300000000000000e+00
	3.000000000000000e-01
	8.185489300260862e-09
	0.000000000000000e+00
	0.000000000000000e+00
	-1.244425531757527e-04
	1.970808762713494e-09
	0.000000000000000e+00
	3.260947611797321e-01
	0.000000000000000e+00

 16	4.000000000000000e-01
	1.788096109976536e-15
	-4.104584833435357e-16
	-1.115311437306029e-16
	-1.627766409947194e-15
	2.149756037021333e-15
	-7.621941395173362e-16
	2.706641538706236e-16
	5.700118976104391e-15
	-5.208588990457679e-15
	-6.154434871156646e-16
	-1.673259189075807e-16
	-2.440691145789318e-15
	3.223460551812564e-15
	4.873167277602312e-04
	6.420795891332205e-03
	1.661788092571210e-03
	5.523864781962837e-04
	-9.999992802654056e-02
	1.300000000000000e+00
	8.563262635906832e-02
	4.000000185627089e-01
	3.260947509102538e-01
	0.000000000000000e+00
	-9.999992802654056e-02
	-9.999996400269529e-02
	4.000000185627089e-01
	-9.999996401251220e-02
	-1.000000000000000e-01
	-1.000000000000000e-01
	1.300000000000000e+00
	4.000000000000000e-01
	1.919367807051708e-08
	0.000000000000000e+00
	0.000000000000000e+00
	-5.524066706023072e-04
	9.745422142881655e-10
	0.000000000000000e+00
	3.260947509102538e-01
	0.000000000000000e+00

 17	5.000000000000000e-01
	1.743183756076182e-15
	-5.250520096396564e-16
	-1.436766640051350e-16
	-2.084807179219784e-15
	2.753535852864575e-15
	-4.308970540008230e-16
	3.604158204974892e-16
	6.953898993989871e-15
	-6.883417760486537e-15
	-7.872346924357022e-16
	-2.157025430056830e-16
	-3.125876094719885e-15
	4.128813330161270e-15
	7.296625951685764e-04
	9.187844754651201e-03
	2.415252889904580e-03
	1.354083838965986e-03
	-9.999992566989555e-02
	1.300000000000000e+00
	1.255715112216838e-01
	5.000000069386203e-01
	3.260947503239862e-01
	0.000000000000000e+00
	-9.999992566989555e-02
	-9.999996282437278e-02
	5.000000069386203e-01
	-9.999996283418969e-02
	-1.000000000000000e-01
	-1.000000000000000e-01
	1.300000000000000e+00
	5.000000000000000e-01
	1.982211674314560e-08
	0.000000000000000e+00
	0.000000000000000e+00
	-1.354104116432705e-03
	3.642775664447484e-10
	0.000000000000000e+00
	3.260947503239862e-01
	0.000000000000000e+00

 18	6.000000000000000e-01
	1.712762682222111e-15
	-5.570747284211865e-16
	-1.523765546667788e-16
	-2.199077296083242e-15
	2.908528579171207e-15
	-3.204795257554764e-16
	3.887876356400476e-16
	7.312306518252558e-15
	-7.380614628137129e-15
	-8.352084280454481e-16
	-2.289725326294648e-16
	-3.297072137808939e-15
	4.361253098483851e-15
	8.430512306787359e-04
	1.004765913218168e-02
	2.692888164398147e-03
	2.325509043436621e-03
	-9.999994960114439e-02
	1.300000000000000e+00
	1.657822945878301e-01
	5.999999968235259e-01
	3.260947562774079e-01
	0.000000000000000e+00
	-9.999994960114439e-02
	-9.999997478999720e-02
	5.999999968235259e-01
	-9.999997479981411e-02
	-1.000000000000000e-01
	-1.000000000000000e-01
	1.300000000000000e+00
	6.000000000000000e-01
	1.344045038112474e-08
	0.000000000000000e+00
	0.000000000000000e+00
	-2.325522578619634e-03
	-1.667648935610444e-10
	0.000000000000000e+00
	3.260947562774079e-01
	0.000000000000000e+00

 19	7.000000000000000e-01
	1.690924705388590e-15
	-5.762699479824616e-16
	-1.574227818799231e-16
	-2.260245552413702e-15
	2.993938282276086e-15
	-2.507132135369240e-16
	4.060163125943548e-16
	7.508361191335063e-15
	-7.663664290392493e-15
	-8.639415438692045e-16
	-2.368070764738955e-16
	-3.388623037134782e-15
	4.489371657477883e-15
	9.081653682250226e-04
	1.023496704743531e-02
	2.791167116813213e-03
	3.342278114652323e-03
	-9.999997228613519e-02
	1.300000000000000e+00
	2.046587864182224e-01
	6.999999826537794e-01
	3.260947619207954e-01
	0.000000000000000e+00
	-9.999997228613519e-02
	-9.999998613249260e-02
	6.999999826537794e-01
	-9.999998614230951e-02
	-1.000000000000000e-01
	-1.000000000000000e-01
	1.300000000000000e+00
	7.000000000000000e-01
	7.391119494215559e-09
	0.000000000000000e+00
	0.000000000000000e+00
	-3.342285237671255e-03
	-9.106765827548990e-10
	0.000000000000000e+00
	3.260947619207954e-01
	0.000000000000000e+00

 20	7.999999999999999e-01
	1.673902312215523e-15
	-5.902013436224565e-16
	-1.609783482595933e-16
	-2.300125953431420e-15
	3.051305645313470e-15
	-1.989258886341199e-16
	4.184674284242054e-16
	7.635374150431195e-15
	-7.854915690221281e-15
	-8.847750799589469e-16
	-2.424535621607295e-16
	-3.448231041355894e-15
	4.575459683475570e-15
	9.591563976683681e-04
	1.023888788548359e-02
	2.833122368228220e-03
	4.366730708603001e-03
	-9.999998668144663e-02
	1.300000000000000e+00
	2.425009624944122e-01
	7.999999568577295e-01
	3.260947655019437e-01
	0.000000000000000e+00
	-9.999998668144663e-02
	-9.999999333014832e-02
	7.999999568577295e-01
	-9.999999333996523e-02
	-1.000000000000000e-01
	-1.000000000000000e-01
	1.300000000000000e+00
	7.999999999999999e-01
	3.552369773340835e-09
	0.000000000000000e+00
	0.000000000000000e+00
	-4.366733436989175e-03
	-2.264969198306765e-09
	0.000000000000000e+00
	3.260947655019437e-01
	0.000000000000000e+00

 21	8.999999999999999e-01
	1.659982809037208e-15
	-6.009640781155299e-16
	-1.636196587630734e-16
	-2.327340263326704e-15
	3.091924000205307e-15
	-1.581685931840408e-16
	4.280242614535612e-16
	7.721152246547503e-15
	-7.991007914817024e-15
	-9.008501377376371e-16
	-2.467824873665202e-16
	-3.488822313986886e-15
	4.636454939091044e-15
	1.005529554071207e-03
	1.018468688422420e-02
	2.853653334797064e-03
	5.388196298139818e-03
	-9.999999425961260e-02
	1.300000000000000e+00
	2.796928837468984e-01
	8.999999070447490e-01
	3.260947673871786e-01
	0.000000000000000e+00
	-9.999999425961260e-02
	-9.999999711923130e-02
	8.999999070447490e-01
	-9.999999712904822e-02
	-1.000000000000000e-01
	-1.000000000000000e-01
	1.300000000000000e+00
	8.999999999999999e-01
	1.531525514048004e-09
	0.000000000000000e+00
	0.000000000000000e+00
	-5.388195990398629e-03
	-4.880150672459393e-09
	0.000000000000000e+00
	3.260947673871786e-01
	0.000000000000000e+00

 22	9.999999999999999e-01
	1.648231285016121e-15
	-6.095998871181853e-16
	-1.656264770980748e-16
	-2.346145945654628e-15
	3.121372309870888e-15
	-1.249033507968847e-16
	4.356272368875803e-16
	7.779610233755611e-15
	-8.090334119846306e-15
	-9.137280471010507e-16
	-2.502210757855425e-16
	-3.516778207383977e-15
	4.680727330270570e-15
	1.050257046248036e-03
	1.010602729547137e-02
	2.863814371702461e-03
	6.402870357921481e-03
	-9.999999775715294e-02
	1.300000000000000e+00
	3.164758799774292e-01
	9.999998115921741e-01
	3.260947682572673e-01
	0.000000000000000e+00
	-9.999999775715294e-02
	-9.999999886800148e-02
	9.999998115921741e-01
	-9.999999887781838e-02
	-1.000000000000000e-01
	-1.000000000000000e-01
	1.300000000000000e+00
	9.999999999999999e-01
	5.988480891727654e-10
	0.000000000000000e+00
	0.000000000000000e+00
	-6.402867208420046e-03
	-9.891410850115800e-09
	0.000000000000000e+00
	3.260947682572673e-01
	0.000000000000000e+00

 23	1.100000000000000e+00
	1.638076427128749e-15
	-6.167217296181980e-16
	-1.671592055661221e-16
	-2.359046907989241e-15
	3.142927843173561e-15
	-9.702768080582885e-17
	4.418276382450904e-16
	7.818917214207545e-15
	-8.163717171646807e-15
	-9.243270167047222e-16
	-2.530191730163519e-16
	-3.535849991220031e-15
	4.713196180941106e-15
	1.094635414856343e-03
	1.001478485657475e-02
	2.868112222775469e-03
	7.408985522519169e-03
	-9.999999918055540e-02
	1.300000000000000e+00
	3.529894890560308e-01
	1.099999632361988e+00
	3.260947686113700e-01
	0.000000000000000e+00
	-9.999999918055540e-02
	-9.999999957970271e-02
	1.099999632361988e+00
	-9.999999958951961e-02
	-1.000000000000000e-01
	-1.000000000000000e-01
	1.300000000000000e+00
	1.100000000000000e+00
	2.192741023476774e-10
	0.000000000000000e+00
	0.000000000000000e+00
	-7.408978446987876e-03
	-1.930099562813536e-08
	0.000000000000000e+00
	3.260947686113700e-01
	0.000000000000000e+00

 24	1.200000000000000e+00
	1.629142522347959e-15
	-6.227207084020761e-16
	-1.683158476066036e-16
	-2.367640563903925e-15
	3.158677119912604e-15
	-7.318941422964500e-17
	4.469748857349443e-16
	7.844267186266619e-15
	-8.218052657771918e-15
	-9.332323997162378e-16
	-2.553348811029893e-16
	-3.548428969629308e-15
	4.736996250448535e-15
	1.139433092685745e-03
	9.916497215797706e-03
	2.868798451562953e-03
	8.405589982551247e-03
	-9.999999962607430e-02
	1.300000000000000e+00
	3.893165978103162e-01
	1.199999302438015e+00
	3.260947687222033e-01
	0.000000000000000e+00
	-9.999999962607430e-02
	-9.999999980246216e-02
	1.199999302438015e+00
	-9.999999981227906e-02
	-1.000000000000000e-01
	-1.000000000000000e-01
	1.300000000000000e+00
	1.200000000000000e+00
	1.004690601547065e-10
	0.000000000000000e+00
	0.000000000000000e+00
	-8.405576322701138e-03
	-3.662200423470985e-08
	0.000000000000000e+00
	3.260947687222033e-01
	0.000000000000000e+00

 25	1.300000000000000e+00
	1.621169296810018e-15
	-6.278608383902143e-16
	-1.691577628962820e-16
	-2.373004518869128e-15
	3.170023120155625e-15
	-5.246968118480035e-17
	4.513023049850197e-16
	7.859150452984107e-15
	-8.257983076784326e-15
	-9.408387772350030e-16
	-2.572734943025572e-16
	-3.556126228797388e-15
	4.754238500334949e-15
	1.185206461522198e-03
	9.814156196349618e-03
	2.867130155571408e-03
	9.392142049690418e-03
	-9.999999948984772e-02
	1.300000000000000e+00
	4.255090821825174e-01
	1.299998705394169e+00
	3.260947686883131e-01
	0.000000000000000e+00
	-9.999999948984772e-02
	-9.999999973434887e-02
	1.299998705394169e+00
	-9.999999974416578e-02
	-1.000000000000000e-01
	-1.000000000000000e-01
	1.300000000000000e+00
	1.300000000000000e+00
	1.367961473264234e-10
	0.000000000000000e+00
	0.000000000000000e+00
	-9.392116841652668e-03
	-6.796680611376171e-08
	0.000000000000000e+00
	3.260947686883131e-01
	0.000000000000000e+00

 26	1.000000000000000e-01
	1.865852176319649e-15
	-1.102801883445455e-19
	-2.754268983295658e-20
	-4.037651028801216e-19
	5.415879810576236e-19
	-1.865576537873665e-15
	6.964054354223900e-20
	1.868394024147546e-15
	-2.887126817423960e-18
	-1.653582576399683e-19
	-4.130920406006963e-20
	-6.054211879399774e-19
	8.120886496397869e-19
	1.308225640508108e-06
	1.792932220404632e-05
	4.649001040214851e-06
	6.609903710638211e-07
	-1.999999997762923e-01
	1.300000000000000e+00
	3.911967861095639e-02
	1.000001382535164e-01
	3.503926849093494e-01
	0.000000000000000e+00
	-1.999999997762923e-01
	-1.999999998768212e-01
	1.000001382535164e-01
	-1.999999998866379e-01
	-2.000000000000000e-01
	-2.000000000000000e-01
	1.300000000000000e+00
	1.000000000000000e-01
	6.051094347814256e-11
	0.000000000000000e+00
	0.000000000000000e+00
	-6.683092888954224e-07
	7.258309609597946e-09
	0.000000000000000e+00
	3.503926849093494e-01
	0.000000000000000e+00

 27	2.000000000000000e-01
	1.791663486138599e-15
	-2.437203197022283e-18
	-6.362179897695765e-19
	-9.326789891620173e-18
	1.240021107841203e-17
	-1.785571849361829e-15
	1.599377782321925e-18
	1.816596691502056e-15
	-3.262421992254900e-17
	-3.654433579747803e-18
	-9.542223056378895e-19
	-1.398495288405947e-17
	1.859360876944534e-17
	1.534050837265220e-05
	2.087645790444014e-04
	5.247731426376963e-05
	8.684531805990502e-06
	-1.999999971753654e-01
	1.300000000000000e+00
	4.047541629784086e-02
	2.000000727282601e-01
	3.503926842917370e-01
	0.000000000000000e+00
	-1.999999971753654e-01
	-1.999999985763577e-01
	2.000000727282601e-01
	-1.999999985861745e-01
	-2.000000000000000e-01
	-2.000000000000000e-01
	1.300000000000000e+00
	2.000000000000000e-01
	7.540914351289452e-10
	0.000000000000000e+00
	0.000000000000000e+00
	-8.689105823937416e-06
	3.818233654598324e-09
	0.000000000000000e+00
	3.503926842917370e-01
	0.000000000000000e+00

 28	3.000000000000000e-01
	1.733047634069232e-15
	-4.213637413390956e-17
	-1.151218624066053e-17
	-1.687702197160769e-16
	2.224187800906470e-16
	-1.627730474740685e-15
	2.720475195377087e-17
	2.127426543166729e-15
	-5.269008203798152e-16
	-6.318078519463765e-17
	-1.726675627891377e-17
	-2.530604162338015e-16
	3.335079577073527e-16
	1.118027245410949e-04
	1.509689163378746e-03
	3.736698260565396e-04
	7.733343515503225e-05
	-1.999999790913464e-01
	1.300000000000000e+00
	4.981805924047295e-02
	3.000000375389781e-01
	3.503926799975368e-01
	0.000000000000000e+00
	-1.999999790913464e-01
	-1.999999895343482e-01
	3.000000375389781e-01
	-1.999999895441649e-01
	-2.000000000000000e-01
	-2.000000000000000e-01
	1.300000000000000e+00
	3.000000000000000e-01
	5.576496514558826e-09
	0.000000000000000e+00
	0.000000000000000e+00
	-7.734098913054414e-05
	1.970796352501747e-09
	0.000000000000000e+00
	3.503926799975368e-01
	0.000000000000000e+00

 29	4.000000000000000e-01
	1.708317307622587e-15
	-3.244212612720887e-16
	-9.199328495900230e-17
	-1.342441004178991e-15
	1.758855550410082e-15
	-8.974530801618844e-16
	2.237844759389547e-16
	4.944174980020269e-15
	-4.270506375797339e-15
	-4.864429661886143e-16
	-1.379986450748099e-16
	-2.012883786585970e-15
	2.637325397849395e-15
	4.026842805369016e-04
	5.337222020493877e-03
	1.322761796618021e-03
	4.033515403537876e-04
	-1.999999373672804e-01
	1.300000000000000e+00
	7.720668806380046e-02
	4.000000185575626e-01
	3.503926700898096e-01
	0.000000000000000e+00
	-1.999999373672804e-01
	-1.999999686723152e-01
	4.000000185575626e-01
	-1.999999686821319e-01
	-2.000000000000000e-01
	-2.000000000000000e-01
	1.300000000000000e+00
	4.000000000000000e-01
	1.670291412125824e-08
	0.000000000000000e+00
	0.000000000000000e+00
	-4.033692417551680e-04
	9.742720311067821e-10
	0.000000000000000e+00
	3.503926700898096e-01
	0.000000000000000e+00

 30	5.000000000000000e-01
	1.663262770594735e-15
	-4.884566225791305e-16
	-1.399950265972284e-16
	-2.030897535834350e-15
	2.659349185010709e-15
	-4.424306641840932e-16
	3.535415126582706e-16
	6.781473405548172e-15
	-6.692584254022349e-15
	-7.323754838315113e-16
	-2.101334689017444e-16
	-3.045074068590492e-15
	3.987583021323748e-15
	6.822850898865779e-04
	8.677225576349026e-03
	2.181623306084349e-03
	1.124205474002643e-03
	-1.999999244276244e-01
	1.300000000000000e+00
	1.164385237936877e-01
	5.000000069253925e-01
	3.503926670171807e-01
	0.000000000000000e+00
	-1.999999244276244e-01
	-1.999999622024872e-01
	5.000000069253925e-01
	-1.999999622123039e-01
	-2.000000000000000e-01
	-2.000000000000000e-01
	1.300000000000000e+00
	5.000000000000000e-01
	2.015348905815006e-08