Title: transistors characterization nmos transistor simulation testbench
Date: Fri Jul 10 16:13:38  2020
Plotname: DC transfer characteristic
Flags: real
No. Variables: 17
No. Points: 351
Variables:
	0	nd	voltage
	1	@m1[vdsat]	voltage
	2	index	notype dims=1
	3	m1#body	voltage
	4	m1#dbody	voltage
	5	m1#gate	voltage
	6	m1#sbody	voltage
	7	nb	voltage
	8	ng	voltage
	9	ngvec	voltage dims=13,27
	10	v-sweep	voltage
	11	i(vds)	current
	12	vdsat	voltage dims=13,27
	13	vdsat_point	voltage dims=1
	14	i(vgs)	current
	15	vgs_point	voltage dims=1
	16	i(vsb)	current
Values:
 0	0.000000000000000e+00
	3.911445929310806e-02
	1.300000000000000e+01
	1.145456961790159e-20
	5.727284808907838e-21
	9.999999999988735e-02
	5.727284808907838e-21
	0.000000000000000e+00
	1.000000000000000e-01
	1.000000000000000e-01
	0.000000000000000e+00
	2.956895547035410e-13
	3.911445929310806e-02
	4.313911476134525e-01
	-5.914158052178209e-13
	1.300000000000000e+00
	-3.054551900392277e-20

 1	5.000000000000000e-02
	3.910047187347824e-02
	0.000000000000000e+00
	1.097917747500097e-13
	4.940442808534664e-13
	9.999999999993234e-02
	5.489588737459140e-14
	0.000000000000000e+00
	1.000000000000000e-01
	1.000000000000000e-01
	5.000000000000000e-02
	-2.106510789361549e-07
	3.910047187347824e-02
	0.000000000000000e+00
	-3.552713678800501e-13
	0.000000000000000e+00
	-5.855436623107899e-13

 2	1.000000000000000e-01
	3.908689290157133e-02
	0.000000000000000e+00
	2.058739299911710e-13
	9.263668657572103e-13
	9.999999999994368e-02
	1.029369649948102e-13
	0.000000000000000e+00
	1.000000000000000e-01
	1.000000000000000e-01
	1.000000000000000e-01
	-2.564742135110778e-07
	3.908689290157133e-02
	0.000000000000000e+00
	-2.956523914576792e-13
	0.000000000000000e+00
	-1.097950415052200e-12

 3	1.500000000000000e-01
	3.907375967483107e-02
	0.000000000000000e+00
	2.999752128933738e-13
	1.349760430175361e-12
	9.999999999995503e-02
	1.499876064455572e-13
	0.000000000000000e+00
	1.000000000000000e-01
	1.000000000000000e-01
	1.500000000000000e-01
	-2.889626581046768e-07
	3.907375967483107e-02
	0.000000000000000e+00
	-2.361444373377708e-13
	0.000000000000000e+00
	-1.599782452000416e-12

 4	2.000000000000000e-01
	3.906111263047821e-02
	0.000000000000000e+00
	3.937927592241559e-13
	1.771863507800099e-12
	9.999999999999998e-02
	1.968963796105950e-13
	0.000000000000000e+00
	1.000000000000000e-01
	1.000000000000000e-01
	2.000000000000000e-01
	-3.217507372729201e-07
	3.906111263047821e-02
	0.000000000000000e+00
	-1.110223024625157e-16
	0.000000000000000e+00
	-2.100092112417994e-12

 5	2.500000000000000e-01
	3.904899558972176e-02
	0.000000000000000e+00
	4.875724996433679e-13
	2.193781491064680e-12
	1.000000000001031e-01
	2.437862498198477e-13
	0.000000000000000e+00
	1.000000000000000e-01
	1.000000000000000e-01
	2.500000000000000e-01
	-3.568683942704575e-07
	3.904899558972176e-02
	0.000000000000000e+00
	5.411227022023013e-13
	0.000000000000000e+00
	-2.600190162801560e-12

 6	3.000000000000000e-01
	3.903745601769153e-02
	0.000000000000000e+00
	5.813504591717370e-13
	2.615674537968939e-12
	1.000000000003009e-01
	2.906752295836791e-13
	0.000000000000000e+00
	1.000000000000000e-01
	1.000000000000000e-01
	3.000000000000000e-01
	-3.950748392996047e-07
	3.903745601769153e-02
	0.000000000000000e+00
	1.579958386344060e-12
	0.000000000000000e+00
	-3.100267433532919e-12

 7	3.500000000000000e-01
	3.902654529964918e-02
	0.000000000000000e+00
	6.751323638423648e-13
	3.037566078287114e-12
	1.000000000006479e-01
	3.375661819186399e-13
	0.000000000000000e+00
	1.000000000000000e-01
	1.000000000000000e-01
	3.500000000000000e-01
	-4.368739167439323e-07
	3.902654529964918e-02
	0.000000000000000e+00
	3.401723347451480e-12
	0.000000000000000e+00
	-3.600352905205497e-12

 8	4.000000000000000e-01
	3.901631903398325e-02
	0.000000000000000e+00
	7.689196279076314e-13
	3.459459794910038e-12
	1.000000000012236e-01
	3.844598139509200e-13
	0.000000000000000e+00
	1.000000000000000e-01
	1.000000000000000e-01
	4.000000000000000e-01
	-4.827101258124535e-07
	3.901631903398325e-02
	0.000000000000000e+00
	6.423861442783618e-12
	0.000000000000000e+00
	-4.100452333002073e-12

 9	4.500000000000000e-01
	3.900683734243402e-02
	0.000000000000000e+00
	8.627131183778936e-13
	3.881356551900556e-12
	1.000000000021427e-01
	4.313565591856978e-13
	0.000000000000000e+00
	1.000000000000000e-01
	1.000000000000000e-01
	4.500000000000000e-01
	-5.330256690729656e-07
	3.900683734243402e-02
	0.000000000000000e+00
	1.124911275240947e-11
	0.000000000000000e+00
	-4.600568315988716e-12

 10	4.999999999999999e-01
	3.899816519791870e-02
	0.000000000000000e+00
	9.565137066058923e-13
	4.303256847231601e-12
	1.000000000035696e-01
	4.782568532993439e-13
	0.000000000000000e+00
	1.000000000000000e-01
	1.000000000000000e-01
	4.999999999999999e-01
	-5.882827599242627e-07
	3.899816519791870e-02
	0.000000000000000e+00
	1.874056465567264e-11
	0.000000000000000e+00
	-5.100703219303775e-12

 11	5.499999999999999e-01
	3.899037277023128e-02
	0.000000000000000e+00
	1.050322356500291e-12
	4.725161171871073e-12
	1.000000000057377e-01
	5.251611782461900e-13
	0.000000000000000e+00
	1.000000000000000e-01
	1.000000000000000e-01
	5.499999999999999e-01
	-6.489749253329114e-07
	3.899037277023128e-02
	0.000000000000000e+00
	3.012301519333960e-11
	0.000000000000000e+00
	-5.600859619379401e-12

 12	6.000000000000000e-01
	3.898353578978830e-02
	0.000000000000000e+00
	1.144140146884374e-12
	5.147070066534771e-12
	1.000000000089756e-01
	5.720700734378783e-13
	0.000000000000000e+00
	1.000000000000000e-01
	1.000000000000000e-01
	6.000000000000000e-01
	-7.156342806110572e-07
	3.898353578978830e-02
	0.000000000000000e+00
	4.712208401258522e-11
	0.000000000000000e+00
	-6.101040393947128e-12

 13	6.500000000000000e-01
	3.897773592945724e-02
	0.000000000000000e+00
	1.237968285427156e-12
	5.568984135245898e-12
	1.000000000137438e-01
	6.189841427089159e-13
	0.000000000000000e+00
	1.000000000000000e-01
	1.000000000000000e-01
	6.500000000000000e-01
	-7.888372361529575e-07
	3.897773592945724e-02
	0.000000000000000e+00
	7.215505970492586e-11
	0.000000000000000e+00
	-6.601248763583458e-12

 14	7.000000000000001e-01
	3.897306120436016e-02
	0.000000000000000e+00
	1.331808122459657e-12
	5.990904053197266e-12
	1.000000000206835e-01
	6.659040612248131e-13
	0.000000000000000e+00
	1.000000000000000e-01
	1.000000000000000e-01
	7.000000000000001e-01
	-8.692096382743105e-07
	3.897306120436016e-02
	0.000000000000000e+00
	1.085881384810250e-10
	0.000000000000000e+00
	-7.101488329189317e-12

 15	7.500000000000001e-01
	3.896960638937171e-02
	0.000000000000000e+00
	1.425661165924273e-12
	6.412830574364023e-12
	1.000000000306832e-01
	7.128305829567676e-13
	0.000000000000000e+00
	1.000000000000000e-01
	1.000000000000000e-01
	7.500000000000001e-01
	-9.574318109573318e-07
	3.896960638937171e-02
	0.000000000000000e+00
	1.610866995349625e-10
	0.000000000000000e+00
	-7.601763111947062e-12

 16	8.000000000000002e-01
	3.896747345383833e-02
	0.000000000000000e+00
	1.519529097704009e-12
	6.834764539688243e-12
	1.000000000449692e-01
	7.597645488462820e-13
	0.000000000000000e+00
	1.000000000000000e-01
	1.000000000000000e-01
	8.000000000000002e-01
	-1.054243751578468e-06
	3.896747345383833e-02
	0.000000000000000e+00
	2.360882600527248e-10
	0.000000000000000e+00
	-8.102077596878426e-12

 17	8.500000000000002e-01
	3.896677201282642e-02
	0.000000000000000e+00
	1.613413791445860e-12
	7.256706885993507e-12
	1.000000000652268e-01
	8.067068957168538e-13
	0.000000000000000e+00
	1.000000000000000e-01
	1.000000000000000e-01
	8.500000000000002e-01
	-1.160450646855544e-06
	3.896677201282642e-02
	0.000000000000000e+00
	3.424407424290621e-10
	0.000000000000000e+00
	-8.602436780375454e-12

 18	9.000000000000002e-01
	3.896761979396485e-02
	0.000000000000000e+00
	1.707317331981703e-12
	7.678658655695763e-12
	1.000000000937639e-01
	8.536586659844216e-13
	0.000000000000000e+00
	1.000000000000000e-01
	1.000000000000000e-01
	9.000000000000002e-01
	-1.276928844873248e-06
	3.896761979396485e-02
	0.000000000000000e+00
	4.922606766655235e-10
	0.000000000000000e+00
	-9.102846221989829e-12

 19	9.500000000000003e-01
	3.897014311867580e-02
	0.000000000000000e+00
	1.803677600787254e-12
	8.101838789532866e-12
	1.000000001337310e-01
	9.018388003868343e-13
	0.000000000000000e+00
	1.000000000000000e-01
	1.000000000000000e-01
	9.500000000000003e-01
	-1.404632424005061e-06
	3.897014311867580e-02
	0.000000000000000e+00
	7.020877212937648e-10
	0.000000000000000e+00
	-9.609806938994995e-12

 20	1.000000000000000e+00
	3.897447739629379e-02
	0.000000000000000e+00
	1.917352250632425e-12
	8.533676113889711e-12
	1.000000001894155e-01
	9.586761253089916e-13
	0.000000000000000e+00
	1.000000000000000e-01
	1.000000000000000e-01
	1.000000000000000e+00
	-1.544600522794160e-06
	3.897447739629379e-02
	0.000000000000000e+00
	9.944312040488512e-10
	0.000000000000000e+00
	-1.016293933880702e-11

 21	1.050000000000000e+00
	3.898076762924800e-02
	0.000000000000000e+00
	2.115022695881876e-12
	9.007511335948385e-12
	1.000000002666361e-01
	1.057511347932973e-12
	0.000000000000000e+00
	1.000000000000000e-01
	1.000000000000000e-01
	1.050000000000000e+00
	-1.697965669175500e-06
	3.898076762924800e-02
	0.000000000000000e+00
	1.399839688609461e-09
	0.000000000000000e+00
	-1.094006052653137e-11

 22	1.100000000000000e+00
	3.898916892713532e-02
	0.000000000000000e+00
	2.675464180232912e-12
	9.662732077556489e-12
	1.000000003732702e-01
	1.337732090106380e-12
	0.000000000000000e+00
	1.000000000000000e-01
	1.000000000000000e-01
	1.100000000000000e+00
	-1.865963575607965e-06
	3.898916892713532e-02
	0.000000000000000e+00
	1.959668760598277e-09
	0.000000000000000e+00
	-1.268457115258367e-11

 23	1.150000000000000e+00
	3.899984702713753e-02
	0.000000000000000e+00
	4.610666994644280e-12
	1.100533348418960e-11
	1.000000005199566e-01
	2.305333497304776e-12
	0.000000000000000e+00
	1.000000000000000e-01
	1.000000000000000e-01
	1.150000000000000e+00
	-2.049945320221117e-06
	3.899984702713753e-02
	0.000000000000000e+00
	2.729772075049652e-09
	0.000000000000000e+00
	-1.809511199487281e-11

 24	1.200000000000000e+00
	3.901297881783784e-02
	0.000000000000000e+00
	1.119634514277948e-11
	1.467317255766719e-11
	1.000000007210323e-01
	5.598172571347573e-12
	0.000000000000000e+00
	1.000000000000000e-01
	1.000000000000000e-01
	1.200000000000000e+00
	-2.251393999292846e-06
	3.901297881783784e-02
	0.000000000000000e+00
	3.785419311341798e-09
	0.000000000000000e+00
	-3.590692040303649e-11

 25	1.250000000000000e+00
	3.902875286307449e-02
	0.000000000000000e+00
	3.202740852702904e-11
	2.546370424914855e-11
	1.000000009957793e-01
	1.601370426339391e-11
	0.000000000000000e+00
	1.000000000000000e-01
	1.000000000000000e-01
	1.250000000000000e+00
	-2.471950347808766e-06
	3.902875286307449e-02
	0.000000000000000e+00
	5.227841493038454e-09
	0.000000000000000e+00
	-9.170642280259121e-11

 26	1.300000000000000e+00
	3.904736992203799e-02
	0.000000000000000e+00
	9.285312659346557e-11
	5.625156328157340e-11
	1.000000013700811e-01
	4.642656329638310e-11
	0.000000000000000e+00
	1.000000000000000e-01
	1.000000000000000e-01
	1.300000000000000e+00
	-2.713456592696317e-06
	3.904736992203799e-02
	0.000000000000000e+00
	7.192925699506247e-09
	0.000000000000000e+00
	-2.541583377677667e-10

 27	0.000000000000000e+00
	3.967885731961251e-02
	0.000000000000000e+00
	3.718180404784216e-20
	1.859090202378165e-20
	1.999999999992851e-01
	1.859090202378165e-20
	0.000000000000000e+00
	2.000000000000000e-01
	2.000000000000000e-01
	0.000000000000000e+00
	1.876696440068948e-12
	3.967885731961251e-02
	0.000000000000000e+00
	-3.753219957047804e-12
	0.000000000000000e+00
	-9.915147753509014e-20

 28	5.000000000000000e-02
	3.971316545477906e-02
	0.000000000000000e+00
	1.098493670797362e-13
	4.940730770183294e-13
	1.999999999994829e-01
	5.492468353945441e-14
	0.000000000000000e+00
	2.000000000000000e-01
	2.000000000000000e-01
	5.000000000000000e-02
	-2.848947850454828e-06
	3.971316545477906e-02
	0.000000000000000e+00
	-2.714717339813433e-12
	0.000000000000000e+00
	-5.856972418568420e-13

 29	1.000000000000000e-01
	3.975168480762501e-02
	0.000000000000000e+00
	2.060768739830437e-13
	9.264683377531460e-13
	1.999999999995860e-01
	1.030384369907457e-13
	0.000000000000000e+00
	2.000000000000000e-01
	2.000000000000000e-01
	1.000000000000000e-01
	-3.449698129163061e-06
	3.975168480762501e-02
	0.000000000000000e+00
	-2.173372593006206e-12
	0.000000000000000e+00
	-1.098491599030932e-12

 30	1.500000000000000e-01
	3.979471108033080e-02
	0.000000000000000e+00
	3.003680155575153e-13
	1.349956831507430e-12
	1.999999999996310e-01
	1.501840077776265e-13
	0.000000000000000e+00
	2.000000000000000e-01
	2.000000000000000e-01
	1.500000000000000e-01
	-3.858122713272681e-06
	3.979471108033080e-02
	0.000000000000000e+00
	-1.937339177970898e-12
	0.000000000000000e+00
	-1.600829925772243e-12

 31	2.000000000000000e-01
	3.984255577292875e-02
	0.000000000000000e+00
	3.944139921410903e-13
	1.772174124258564e-12
	1.999999999996424e-01
	1.972069960690598e-13
	0.000000000000000e+00
	2.000000000000000e-01
	2.000000000000000e-01
	2.000000000000000e-01
	-4.262453084980480e-06
	3.984255577292875e-02
	0.000000000000000e+00
	-1.877609179246065e-12
	0.000000000000000e+00
	-2.101748733531058e-12

 32	2.500000000000000e-01
	3.989554647203435e-02
	0.000000000000000e+00
	4.884633923349753e-13
	2.194226937410480e-12
	1.999999999996537e-01
	2.442316961656481e-13
	0.000000000000000e+00
	2.000000000000000e-01
	2.000000000000000e-01
	2.500000000000000e-01
	-4.689559909843024e-06
	3.989554647203435e-02
	0.000000000000000e+00
	-1.818101225126156e-12
	0.000000000000000e+00
	-2.602565876647625e-12

 33	3.000000000000000e-01
	3.995402707751510e-02
	0.000000000000000e+00
	5.825567430407206e-13
	2.616277679903426e-12
	1.999999999996986e-01
	2.912783715181664e-13
	0.000000000000000e+00
	2.000000000000000e-01
	2.000000000000000e-01
	3.000000000000000e-01
	-5.148492285756459e-06
	3.995402707751510e-02
	0.000000000000000e+00
	-1.582067810090848e-12
	0.000000000000000e+00
	-3.103484190519282e-12

 34	3.500000000000000e-01
	4.001835795887650e-02
	0.000000000000000e+00
	6.767051628799315e-13
	3.038352477805892e-12
	1.999999999998017e-01
	3.383525814374172e-13
	0.000000000000000e+00
	2.000000000000000e-01
	2.000000000000000e-01
	3.500000000000000e-01
	-5.644567777012764e-06
	4.001835795887650e-02
	0.000000000000000e+00
	-1.040945107888547e-12
	0.000000000000000e+00
	-3.604547035975479e-12

 35	4.000000000000000e-01
	4.008891603296350e-02
	0.000000000000000e+00
	7.709161659160829e-13
	3.460458063914257e-12
	1.999999999999996e-01
	3.854580829551382e-13
	0.000000000000000e+00
	2.000000000000000e-01
	2.000000000000000e-01
	4.000000000000000e-01
	-6.182066953322785e-06
	4.008891603296350e-02
	0.000000000000000e+00
	-2.220446049250313e-15
	0.000000000000000e+00
	-4.105776434361928e-12

 36	4.500000000000000e-01
	4.016609475447022e-02
	0.000000000000000e+00
	8.651974026476749e-13
	3.882598694035438e-12
	2.000000000003467e-01
	4.325987013205791e-13
	0.000000000000000e+00
	2.000000000000000e-01
	2.000000000000000e-01
	4.500000000000000e-01
	-6.764997856249682e-06
	4.016609475447022e-02
	0.000000000000000e+00
	1.819877581965557e-12
	0.000000000000000e+00
	-4.607193074046422e-12

 37	4.999999999999999e-01
	4.025030401076189e-02
	0.000000000000000e+00
	9.595572352196543e-13
	4.304778611538471e-12
	2.000000000009223e-01
	4.797786176062135e-13
	0.000000000000000e+00
	2.000000000000000e-01
	2.000000000000000e-01
	4.999999999999999e-01
	-7.397376860298101e-06
	4.025030401076189e-02
	0.000000000000000e+00
	4.841904654995233e-12
	0.000000000000000e+00
	-5.108819295613212e-12

 38	5.499999999999999e-01
	4.034196991262445e-02
	0.000000000000000e+00
	1.054004867692099e-12
	4.727002427466965e-12
	2.000000000018413e-01
	5.270024338420801e-13
	0.000000000000000e+00
	2.000000000000000e-01
	2.000000000000000e-01
	5.499999999999999e-01
	-8.083354490051517e-06
	4.034196991262445e-02
	0.000000000000000e+00
	9.667155964621088e-12
	0.000000000000000e+00
	-5.610679649231570e-12

 39	6.000000000000000e-01
	4.044153447280024e-02
	0.000000000000000e+00
	1.148550419776266e-12
	5.149275202980701e-12
	2.000000000032683e-01
	5.742752098838078e-13
	0.000000000000000e+00
	2.000000000000000e-01
	2.000000000000000e-01
	6.000000000000000e-01
	-8.827282407309383e-06
	4.044153447280024e-02
	0.000000000000000e+00
	1.715871889018672e-11
	0.000000000000000e+00
	-6.112801121667639e-12

 40	6.500000000000000e-01
	4.054945516454366e-02
	0.000000000000000e+00
	1.243204998090555e-12
	5.571602491577578e-12
	2.000000000054364e-01
	6.216024990405954e-13
	0.000000000000000e+00
	2.000000000000000e-01
	2.000000000000000e-01
	6.500000000000000e-01
	-9.633755200302468e-06
	4.054945516454366e-02
	0.000000000000000e+00
	2.854116942785367e-11
	0.000000000000000e+00
	-6.615213330696302e-12

 41	7.000000000000001e-01
	4.066620435295176e-02
	0.000000000000000e+00
	1.337980771830550e-12
	5.993990377882690e-12
	2.000000000086743e-01
	6.689903859102363e-13
	0.000000000000000e+00
	2.000000000000000e-01
	2.000000000000000e-01
	7.000000000000001e-01
	-1.050764037428572e-05
	4.066620435295176e-02
	0.000000000000000e+00
	4.554001620249437e-11
	0.000000000000000e+00
	-7.117948727524012e-12

 42	7.500000000000001e-01
	4.079226859249863e-02
	0.000000000000000e+00
	1.432891053425390e-12
	6.416445518114554e-12
	2.000000000134425e-01
	7.164455267072987e-13
	0.000000000000000e+00
	2.000000000000000e-01
	2.000000000000000e-01
	7.500000000000001e-01
	-1.145410245008906e-05
	4.079226859249863e-02
	0.000000000000000e+00
	7.057310291713748e-11
	0.000000000000000e+00
	-7.621042811964463e-12

 43	8.000000000000002e-01
	4.092814778503419e-02
	0.000000000000000e+00
	1.527950384048851e-12
	6.838975182860632e-12
	2.000000000203821e-01
	7.639751920186712e-13
	0.000000000000000e+00
	2.000000000000000e-01
	2.000000000000000e-01
	8.000000000000002e-01
	-1.247862400104935e-05
	4.092814778503419e-02
	0.000000000000000e+00
	1.070061816932366e-10
	0.000000000000000e+00
	-8.124534360481471e-12

 44	8.500000000000002e-01
	4.107435419350187e-02
	0.000000000000000e+00
	1.623174623834765e-12
	7.261587302187922e-12
	2.000000000303818e-01
	8.115873119112695e-13
	0.000000000000000e+00
	2.000000000000000e-01
	2.000000000000000e-01
	8.500000000000002e-01
	-1.358702509604589e-05
	4.107435419350187e-02
	0.000000000000000e+00
	1.595046317248716e-10
	0.000000000000000e+00
	-8.628465666765340e-12

 45	9.000000000000002e-01
	4.123141130778789e-02
	0.000000000000000e+00
	1.718581046664588e-12
	7.684290513037163e-12
	2.000000000446678e-01
	8.592905233258217e-13
	0.000000000000000e+00
	2.000000000000000e-01
	2.000000000000000e-01
	9.000000000000002e-01
	-1.478548198155002e-05
	4.123141130778789e-02
	0.000000000000000e+00
	2.345061922426339e-10
	0.000000000000000e+00
	-9.132882794499994e-12

 46	9.500000000000003e-01
	4.139985256042970e-02
	0.000000000000000e+00
	1.838511731885246e-12
	8.119255855081731e-12
	2.000000000649255e-01
	9.192558659356990e-13
	0.000000000000000e+00
	2.000000000000000e-01
	2.000000000000000e-01
	9.500000000000003e-01
	-1.608054559701060e-05
	4.139985256042970e-02
	0.000000000000000e+00
	3.408586746189712e-10
	0.000000000000000e+00
	-9.702697955325800e-12

 47	1.000000000000000e+00
	4.158021989138671e-02
	0.000000000000000e+00
	2.138842316188630e-12
	8.644421146666984e-12
	2.000000000934626e-01
	1.069421158086260e-12
	0.000000000000000e+00
	2.000000000000000e-01
	2.000000000000000e-01
	1.000000000000000e+00
	-1.747916046365508e-05
	4.158021989138671e-02
	0.000000000000000e+00
	4.906786088554327e-10
	0.000000000000000e+00
	-1.075357951406544e-11

 48	1.050000000000000e+00
	4.177306216269275e-02
	0.000000000000000e+00
	3.299732720266088e-12
	9.599866348136049e-12
	2.000000001334297e-01
	1.649866360120617e-12
	0.000000000000000e+00
	2.000000000000000e-01
	2.000000000000000e-01
	1.050000000000000e+00
	-1.898868480242346e-05
	4.177306216269275e-02
	0.000000000000000e+00
	7.005058755282789e-10
	0.000000000000000e+00
	-1.409928726058609e-11

 49	1.100000000000000e+00
	4.197893342557609e-02
	0.000000000000000e+00
	8.136741642742775e-12
	1.239337080879094e-11
	2.000000001891141e-01
	4.068370821340744e-12
	0.000000000000000e+00
	2.000000000000000e-01
	2.000000000000000e-01
	1.100000000000000e+00
	-2.061691465376891e-05
	4.197893342557609e-02
	0.000000000000000e+00
	9.928489141941554e-10
	0.000000000000000e+00
	-2.724797773017182e-11

 50	1.150000000000000e+00
	4.219839104452561e-02
	0.000000000000000e+00
	2.674314344501825e-11
	2.207157170929359e-11
	2.000000002663348e-01
	1.337157172240841e-11
	0.000000000000000e+00
	2.000000000000000e-01
	2.000000000000000e-01
	1.150000000000000e+00
	-2.237211844297655e-05
	4.219839104452561e-02
	0.000000000000000e+00
	1.398257731821673e-09
	0.000000000000000e+00
	-7.711504924002413e-11

 51	1.200000000000000e+00
	4.243199368483531e-02
	0.000000000000000e+00
	9.135805371084219e-11
	5.475402684139794e-11
	2.000000003729689e-01
	4.567902685507704e-11
	0.000000000000000e+00
	2.000000000000000e-01
	2.000000000000000e-01
	1.200000000000000e+00
	-2.426309879188416e-05
	4.243199368483531e-02
	0.000000000000000e+00
	1.958086803810488e-09
	0.000000000000000e+00
	-2.496714767444588e-10

 52	1.250000000000000e+00
	4.268029917239835e-02
	0.000000000000000e+00
	2.951002765778318e-10
	1.570001382735634e-10
	2.000000005196552e-01
	1.475501382878046e-10
	0.000000000000000e+00
	2.000000000000000e-01
	2.000000000000000e-01
	1.250000000000000e+00
	-2.629931958666001e-05
	4.268029917239835e-02
	0.000000000000000e+00
	2.728190118261864e-09
	0.000000000000000e+00
	-7.932340714628928e-10

 53	1.300000000000000e+00
	4.294386223705036e-02
	0.000000000000000e+00
	8.842315654924385e-10
	4.519407827280922e-10
	2.000000007207309e-01
	4.421157827428892e-10
	0.000000000000000e+00
	2.000000000000000e-01
	2.000000000000000e-01
	1.300000000000000e+00
	-2.849117774955795e-05
	4.294386223705036e-02
	0.000000000000000e+00
	3.783837465576312e-09
	0.000000000000000e+00
	-2.364500843077153e-09

 54	0.000000000000000e+00
	4.460205655208211e-02
	0.000000000000000e+00
	1.001210581881916e-19
	5.006052909372034e-20
	2.999999999974084e-01
	5.006052909372034e-20
	0.000000000000000e+00
	3.000000000000000e-01
	3.000000000000000e-01
	0.000000000000000e+00
	6.803055827933377e-12
	4.460205655208211e-02
	0.000000000000000e+00
	-1.360622725599114e-11
	0.000000000000000e+00
	-2.669894887015857e-19

 55	5.000000000000000e-02
	4.494645960657494e-02
	0.000000000000000e+00
	1.103313149454754e-13
	4.943140509511971e-13
	2.999999999979844e-01
	5.516565747232220e-14
	0.000000000000000e+00
	3.000000000000000e-01
	3.000000000000000e-01
	5.000000000000000e-02
	-2.799559221929887e-05
	4.494645960657494e-02
	0.000000000000000e+00
	-1.058220178151714e-11
	0.000000000000000e+00
	-5.869824361664414e-13

 56	1.000000000000000e-01
	4.530939825082023e-02
	0.000000000000000e+00
	2.078773899324145e-13
	9.273685957278247e-13
	2.999999999983314e-01
	1.039386949654244e-13
	0.000000000000000e+00
	3.000000000000000e-01
	3.000000000000000e-01
	1.000000000000000e-01
	-3.407651607943402e-05
	4.530939825082023e-02
	0.000000000000000e+00
	-8.760103753502335e-12
	0.000000000000000e+00
	-1.103292974899513e-12

 57	1.500000000000000e-01
	4.569136615365862e-02
	0.000000000000000e+00
	3.039041525704165e-13
	1.351724900013867e-12
	2.999999999985293e-01
	1.519520762840637e-13
	0.000000000000000e+00
	3.000000000000000e-01
	3.000000000000000e-01
	1.500000000000000e-01
	-3.772298224135141e-05
	4.569136615365862e-02
	0.000000000000000e+00
	-7.721601136267964e-12
	0.000000000000000e+00
	-1.610259624480368e-12

 58	2.000000000000000e-01
	4.609283476895564e-02
	0.000000000000000e+00
	4.000013590004395e-13
	1.774967807688218e-12
	2.999999999986324e-01
	2.000006794987134e-13
	0.000000000000000e+00
	3.000000000000000e-01
	3.000000000000000e-01
	2.000000000000000e-01
	-4.116139139833785e-05
	4.609283476895564e-02
	0.000000000000000e+00
	-7.180256389460737e-12
	0.000000000000000e+00
	-2.116648378500470e-12

 59	2.500000000000000e-01
	4.651425065479289e-02
	0.000000000000000e+00
	4.964202747204681e-13
	2.198205378603196e-12
	2.999999999986773e-01
	2.482101373583645e-13
	0.000000000000000e+00
	3.000000000000000e-01
	3.000000000000000e-01
	2.500000000000000e-01
	-4.469542391573021e-05
	4.651425065479289e-02
	0.000000000000000e+00
	-6.944667063635279e-12
	0.000000000000000e+00
	-2.623784229691479e-12

 60	3.000000000000000e-01
	4.695603285500268e-02
	0.000000000000000e+00
	5.932237646182478e-13
	2.621611190692150e-12
	2.999999999986885e-01
	2.966118823068899e-13
	0.000000000000000e+00
	3.000000000000000e-01
	3.000000000000000e-01
	3.000000000000000e-01
	-4.841166120804104e-05
	4.695603285500268e-02
	0.000000000000000e+00
	-6.885381154120296e-12
	0.000000000000000e+00
	-3.131929581413969e-12

 61	3.500000000000000e-01
	4.741857036912352e-02
	0.000000000000000e+00
	6.904519053691535e-13
	3.045225849050452e-12
	2.999999999986998e-01
	3.452259526819765e-13
	0.000000000000000e+00
	3.000000000000000e-01
	3.000000000000000e-01
	3.500000000000000e-01
	-5.235057292312509e-05
	4.741857036912352e-02
	0.000000000000000e+00
	-6.826539333815163e-12
	0.000000000000000e+00
	-3.641205015974162e-12

 62	4.000000000000000e-01
	4.790221973689025e-02
	0.000000000000000e+00
	7.881448734468940e-13
	3.469072417679597e-12
	2.999999999987447e-01
	3.940724367204789e-13
	0.000000000000000e+00
	3.000000000000000e-01
	3.000000000000000e-01
	4.000000000000000e-01
	-5.653846440277316e-05
	4.790221973689025e-02
	0.000000000000000e+00
	-6.590727963384779e-12
	0.000000000000000e+00
	-4.151719654478461e-12

 63	4.500000000000000e-01
	4.840730276305855e-02
	0.000000000000000e+00
	8.863458088798632e-13
	3.893172897151453e-12
	2.999999999988476e-01
	4.431729044365936e-13
	0.000000000000000e+00
	3.000000000000000e-01
	3.000000000000000e-01
	4.500000000000000e-01
	-6.099627891461097e-05
	4.840730276305855e-02
	0.000000000000000e+00
	-6.050049350392328e-12
	0.000000000000000e+00
	-4.663588824041116e-12

 64	4.999999999999999e-01
	4.893410440761398e-02
	0.000000000000000e+00
	9.851010675488188e-13
	4.317550527702957e-12
	2.999999999990454e-01
	4.925505337706995e-13
	0.000000000000000e+00
	3.000000000000000e-01
	3.000000000000000e-01
	4.999999999999999e-01
	-6.574267760819238e-05
	4.893410440761398e-02
	0.000000000000000e+00
	-5.011990822367807e-12
	0.000000000000000e+00
	-5.176936181875277e-12

 65	5.499999999999999e-01
	4.948287086525111e-02
	0.000000000000000e+00
	1.084460208364605e-12
	4.742230097803102e-12
	2.999999999993923e-01
	5.422301041782186e-13
	0.000000000000000e+00
	3.000000000000000e-01
	3.000000000000000e-01
	5.499999999999999e-01
	-7.079529773729794e-05
	4.948287086525111e-02
	0.000000000000000e+00
	-3.190558928167775e-12
	0.000000000000000e+00
	-5.691893891085678e-12

 66	6.000000000000000e-01
	5.005380785645180e-02
	0.000000000000000e+00
	1.184475985093239e-12
	5.167237985639052e-12
	2.999999999999678e-01
	5.922379925421588e-13
	0.000000000000000e+00
	3.000000000000000e-01
	3.000000000000000e-01
	6.000000000000000e-01
	-7.617131913368951e-05
	5.005380785645180e-02
	0.000000000000000e+00
	-1.694200335577989e-13
	0.000000000000000e+00
	-6.208602629251237e-12

 67	6.500000000000000e-01
	5.064707915051856e-02
	0.000000000000000e+00
	1.285204352130968e-12
	5.592602168597627e-12
	3.000000000008869e-01
	6.426021760606440e-13
	0.000000000000000e+00
	3.000000000000000e-01
	3.000000000000000e-01
	6.500000000000000e-01
	-8.188773077773133e-05
	5.064707915051856e-02
	0.000000000000000e+00
	4.656053320672981e-12
	0.000000000000000e+00
	-6.727211608221191e-12

 68	7.000000000000001e-01
	5.126280533856942e-02
	0.000000000000000e+00
	1.386704471575200e-12
	6.018352227754831e-12
	3.000000000023136e-01
	6.933522357823776e-13
	0.000000000000000e+00
	3.000000000000000e-01
	3.000000000000000e-01
	7.000000000000001e-01
	-8.796145283186926e-05
	5.126280533856942e-02
	0.000000000000000e+00
	1.214628397860906e-11
	0.000000000000000e+00
	-7.247878593606946e-12

 69	7.500000000000001e-01
	5.190106287181237e-02
	0.000000000000000e+00
	1.489038712420907e-12
	6.444519347612101e-12
	3.000000000044816e-01
	7.445193562048459e-13
	0.000000000000000e+00
	3.000000000000000e-01
	3.000000000000000e-01
	7.500000000000001e-01
	-9.440938259248572e-05
	5.190106287181237e-02
	0.000000000000000e+00
	2.352806838246124e-11
	0.000000000000000e+00
	-7.770769902731190e-12

 70	8.000000000000002e-01
	5.256188337740188e-02
	0.000000000000000e+00
	1.592272636292566e-12
	6.871136308982249e-12
	3.000000000077195e-01
	7.961363181402864e-13
	0.000000000000000e+00
	3.000000000000000e-01
	3.000000000000000e-01
	8.000000000000002e-01
	-1.012483973574265e-04
	5.256188337740188e-02
	0.000000000000000e+00
	4.052713720170686e-11
	0.000000000000000e+00
	-8.296060366593033e-12

 71	8.500000000000002e-01
	5.324525326092806e-02
	0.000000000000000e+00
	1.696474966208849e-12
	7.298237473374690e-12
	3.000000000124875e-01
	8.482374830980357e-13
	0.000000000000000e+00
	3.000000000000000e-01
	3.000000000000000e-01
	8.500000000000002e-01
	-1.084953315516213e-04
	5.324525326092806e-02
	0.000000000000000e+00
	6.555911369332534e-11
	0.000000000000000e+00
	-8.823933246575799e-12

 72	9.000000000000002e-01
	5.395111360112479e-02
	0.000000000000000e+00
	1.801717536080441e-12
	7.725858757744778e-12
	3.000000000194269e-01
	9.008587680334352e-13
	0.000000000000000e+00
	3.000000000000000e-01
	3.000000000000000e-01
	9.000000000000002e-01
	-1.161669381297335e-04
	5.395111360112479e-02
	0.000000000000000e+00
	1.019913042910048e-10
	0.000000000000000e+00
	-9.354580099774792e-12

 73	9.500000000000003e-01
	5.467936033879154e-02
	0.000000000000000e+00
	1.980883268535799e-12
	8.190441623406474e-12
	3.000000000294266e-01
	9.904416342604395e-13
	0.000000000000000e+00
	3.000000000000000e-01
	3.000000000000000e-01
	9.500000000000003e-01
	-1.242798408912057e-04
	5.467936033879154e-02
	0.000000000000000e+00
	1.544893102334299e-10
	0.000000000000000e+00
	-1.008235538667797e-11

 74	1.000000000000000e+00