Title: transistors characterization nmos transistor simulation testbench
Date: Wed Jul  8 23:05:31  2020
Plotname: DC transfer characteristic
Flags: real
No. Variables: 20
No. Points: 675
Variables:
	0	nd	voltage
	1	@m1[gds]	admittance
	2	@m1[gm]	admittance
	3	@m1[gmbs]	admittance
	4	i(@m1[id])	current
	5	@m1[vbs]	voltage
	6	@m1[vds]	voltage
	7	@m1[vdsat]	voltage
	8	@m1[vgs]	voltage
	9	@m1[vth]	voltage
	10	m1#body	voltage
	11	m1#dbody	voltage
	12	m1#gate	voltage
	13	m1#sbody	voltage
	14	nb	voltage
	15	ng	voltage
	16	v-sweep	voltage
	17	i(vds)	current
	18	i(vgs)	current
	19	i(vsb)	current
Values:
 0	0.000000000000000e+00
	4.459318405554283e-08
	0.000000000000000e+00
	0.000000000000000e+00
	0.000000000000000e+00
	2.317277945086518e-18
	0.000000000000000e+00
	4.103957166123770e-02
	9.999999999999920e-02
	3.880071954297645e-01
	2.317277945086518e-18
	1.158638972534569e-18
	9.999999999999920e-02
	1.158638972534569e-18
	0.000000000000000e+00
	1.000000000000000e-01
	0.000000000000000e+00
	2.976728127578081e-13
	-5.968558980384842e-13
	-6.179407858187018e-18

 1	5.000000000000000e-02
	5.054807880580327e-09
	2.774403995147749e-08
	8.184569656133473e-09
	1.026754560303632e-09
	1.097894158373562e-13
	5.000000000000000e-02
	4.103957168836480e-02
	9.999999999999953e-02
	3.880071774878630e-01
	1.097894158373562e-13
	4.940431013971397e-13
	9.999999999999953e-02
	5.489470791826462e-14
	0.000000000000000e+00
	1.000000000000000e-01
	5.000000000000000e-02
	-1.027278569176564e-09
	-3.410605131648481e-13
	-5.855373718770425e-13

 2	1.000000000000000e-01
	5.599859861564622e-10
	3.028629772146314e-08
	8.924525847581783e-09
	1.120652249739453e-09
	2.058597929689868e-13
	1.000000000000000e-01
	4.103957171536043e-02
	9.999999999999960e-02
	3.880071596354397e-01
	2.058597929689868e-13
	9.263597972461182e-13
	9.999999999999960e-02
	1.029298964837181e-13
	0.000000000000000e+00
	1.000000000000000e-01
	1.000000000000000e-01
	-1.121748203384824e-09
	-2.984279490192421e-13
	-1.097912716326347e-12

 3	1.500000000000000e-01
	1.686489135134036e-10
	3.069973086424248e-08
	9.045327447721626e-09
	1.135933671718337e-09
	2.999455240465458e-13
	1.500000000000000e-01
	4.103957174221727e-02
	9.999999999999969e-02
	3.880071418720487e-01
	2.999455240465458e-13
	1.349745585751947e-12
	9.999999999999969e-02
	1.499727620221433e-13
	0.000000000000000e+00
	1.000000000000000e-01
	1.500000000000000e-01
	-1.137590977764219e-09
	-2.273736754432321e-13
	-1.599703281742149e-12

 4	2.000000000000000e-01
	9.224565427932946e-11
	3.086494819746846e-08
	9.093790873129076e-09
	1.142045970768685e-09
	3.937441005034802e-13
	2.000000000000000e-01
	4.103957176894258e-02
	1.000000000000000e-01
	3.880071241972441e-01
	3.937441005034802e-13
	1.771839178439761e-12
	1.000000000000000e-01
	1.968720502502573e-13
	0.000000000000000e+00
	1.000000000000000e-01
	2.000000000000000e-01
	-1.144439658181551e-09
	0.000000000000000e+00
	-2.099962355829428e-12

 5	2.500000000000000e-01
	6.853375335136120e-11
	3.097090032125693e-08
	9.124933382069589e-09
	1.145968105268682e-09
	4.875011291122835e-13
	2.500000000000000e-01
	4.103957179552913e-02
	1.000000000000007e-01
	3.880071066105841e-01
	4.875011291122835e-13
	2.193745805799138e-12
	1.000000000000007e-01
	2.437505645543058e-13
	0.000000000000000e+00
	1.000000000000000e-01
	2.500000000000000e-01
	-1.149403019632945e-09
	5.400124791776761e-13
	-2.599999841385194e-12

 6	3.000000000000000e-01
	5.893088463341817e-11
	3.105609803472428e-08
	9.149999184638243e-09
	1.149123055610329e-09
	5.812521462443365e-13
	3.000000000000000e-01
	4.103957182198409e-02
	1.000000000000021e-01
	3.880070891116274e-01
	5.812521462443365e-13
	2.615625381505239e-12
	1.000000000000021e-01
	2.906260731199793e-13
	0.000000000000000e+00
	1.000000000000000e-01
	3.000000000000000e-01
	-1.154096759926844e-09
	1.591615728102624e-12
	-3.100005265726322e-12

 7	3.500000000000000e-01
	5.431469670676601e-11
	3.113219561248664e-08
	9.172397275679161e-09
	1.151941562926057e-09
	6.750022935886699e-13
	3.500000000000000e-01
	4.103957184831489e-02
	1.000000000000046e-01
	3.880070716999403e-01
	6.750022935886699e-13
	3.037501043160268e-12
	1.000000000000046e-01
	3.375011467917929e-13
	0.000000000000000e+00
	1.000000000000000e-01
	3.500000000000000e-01
	-1.159237075206192e-09
	3.396394276933279e-12
	-3.600006051195384e-12

 8	4.000000000000000e-01
	5.181121769832986e-11
	3.120366395351492e-08
	9.193437085335253e-09
	1.154588900938861e-09
	7.687523150862600e-13
	4.000000000000000e-01
	4.103957187450690e-02
	1.000000000000086e-01
	3.880070543750858e-01
	7.687523150862600e-13
	3.459376138499353e-12
	1.000000000000086e-01
	3.843761575402349e-13
	0.000000000000000e+00
	1.000000000000000e-01
	4.000000000000000e-01
	-1.165406500465771e-09
	6.423306331271306e-12
	-4.100006165478083e-12

 9	4.500000000000000e-01
	5.032463652423823e-11
	3.127251165734379e-08
	9.213707429664737e-09
	1.157139330206138e-09
	8.625023183764255e-13
	4.500000000000000e-01
	4.103957190056733e-02
	1.000000000000151e-01
	3.880070371366299e-01
	8.625023183764255e-13
	3.881251151899823e-12
	1.000000000000151e-01
	4.312511591849646e-13
	0.000000000000000e+00
	1.000000000000000e-01
	4.500000000000000e-01
	-1.173282259711526e-09
	1.125499693443999e-11
	-4.600006182651047e-12

 10	4.999999999999999e-01
	4.937618682371603e-11
	3.133974908621083e-08
	9.233504702378228e-09
	1.159630208754372e-09
	9.562523190332494e-13
	4.999999999999999e-01
	4.103957192651095e-02
	1.000000000000251e-01
	3.880070199841447e-01
	9.562523190332494e-13
	4.303126153445281e-12
	1.000000000000251e-01
	4.781261595130235e-13
	0.000000000000000e+00
	1.000000000000000e-01
	4.999999999999999e-01
	-1.183764616526757e-09
	1.872990651463624e-11
	-5.100006185776205e-12

 11	5.499999999999999e-01
	4.873418720368045e-11
	3.140592963008484e-08
	9.252991333538649e-09
	1.162081999650203e-09
	1.050002319310087e-12
	5.499999999999999e-01
	4.103957195231565e-02
	1.000000000000404e-01
	3.880070029171968e-01
	1.050002319310087e-12
	4.725001153275972e-12
	1.000000000000404e-01
	5.250011596510893e-13
	0.000000000000000e+00
	1.000000000000000e-01
	5.499999999999999e-01
	-1.198098770780322e-09
	3.012701199622825e-11
	-5.600006186871553e-12

 12	6.000000000000000e-01
	4.827723346147348e-11
	3.147137726850677e-08
	9.272262460775983e-09
	1.164506683616838e-09
	1.143752319532954e-12
	6.000000000000000e-01
	4.103957197798893e-02
	1.000000000000632e-01
	3.880069859353643e-01
	1.143752319532954e-12
	5.146876152859063e-12
	1.000000000000632e-01
	5.718761597621696e-13
	0.000000000000000e+00
	1.000000000000000e-01
	6.000000000000000e-01
	-1.218022611162957e-09
	4.710898338089464e-11
	-6.100006187675900e-12

 13	6.500000000000000e-01
	4.793751494349449e-11
	3.153629214292001e-08
	9.291376878996643e-09
	1.166911662220573e-09
	1.237502319749006e-12
	6.500000000000000e-01
	4.103957200353795e-02
	1.000000000000968e-01
	3.880069690382209e-01
	1.237502319749006e-12
	5.568751152406824e-12
	1.000000000000968e-01
	6.187511598698424e-13
	0.000000000000000e+00
	1.000000000000000e-01
	6.500000000000000e-01
	-1.245960556009235e-09
	7.216272024379577e-11
	-6.600006188440794e-12

 14	7.000000000000001e-01
	4.767511996716521e-11
	3.160080350738258e-08
	9.310372571362345e-09
	1.169301715685438e-09
	1.331252319965057e-12
	7.000000000000001e-01
	4.103957202896280e-02
	1.000000000001457e-01
	3.880069522253442e-01
	1.331252319965057e-12
	5.990626151949968e-12
	1.000000000001457e-01
	6.656261599775148e-13
	0.000000000000000e+00
	1.000000000000000e-01
	7.000000000000001e-01
	-1.285283651790694e-09
	1.085993517335737e-10
	-7.100006189202606e-12

 15	7.500000000000001e-01
	4.746550727927107e-11
	3.166499802495743e-08
	9.329275012456078e-09
	1.171680049193110e-09
	1.425002320182084e-12
	7.500000000000001e-01
	4.103957205425614e-02
	1.000000000002161e-01
	3.880069354963141e-01
	1.425002320182084e-12
	6.412501151492930e-12
	1.000000000002161e-01
	7.125011600856752e-13
	0.000000000000000e+00
	1.000000000000000e-01
	7.500000000000001e-01
	-1.340660499495482e-09
	1.610800381968147e-10
	-7.600006189966574e-12

 16	8.000000000000002e-01
	4.729301680299202e-11
	3.172893570639611e-08
	9.348101846970829e-09
	1.174048882267816e-09
	1.518752320400223e-12
	8.000000000000003e-01
	4.103957207942525e-02
	1.000000000003167e-01
	3.880069188507126e-01
	1.518752320400223e-12
	6.834376151036352e-12
	1.000000000003167e-01
	7.593761601943917e-13
	0.000000000000000e+00
	1.000000000000000e-01
	8.000000000000002e-01
	-1.418530879381671e-09
	2.360849293836509e-10
	-8.100006190733445e-12

 17	8.500000000000002e-01
	4.714733314626036e-11
	3.179265929649688e-08
	9.366865645887398e-09
	1.176409795882315e-09
	1.612502320619488e-12
	8.500000000000002e-01
	4.103957210446284e-02
	1.000000000004593e-01
	3.880069022881216e-01
	1.612502320619488e-12
	7.256251150580324e-12
	1.000000000004593e-01
	8.062511603036713e-13
	0.000000000000000e+00
	1.000000000000000e-01
	8.500000000000002e-01
	-1.527744160005199e-09
	3.424389660722227e-10
	-8.600006191503309e-12

 18	9.000000000000002e-01
	4.702147288731725e-11
	3.185620001715096e-08
	9.385575593317187e-09
	1.178763944842521e-09
	1.706252320839877e-12
	9.000000000000002e-01
	4.103957212938356e-02
	1.000000000006603e-01
	3.880068858081310e-01
	1.706252320839877e-12
	7.678126150124855e-12
	1.000000000006603e-01
	8.531261604135127e-13
	0.000000000000000e+00
	1.000000000000000e-01
	9.000000000000002e-01
	-1.680418327662055e-09
	4.922497964798822e-10
	-9.100006192276169e-12

 19	9.500000000000003e-01
	4.691059544303603e-11
	3.191958120049486e-08
	9.404238553898244e-09
	1.181112192150254e-09
	1.800002330072451e-12
	9.500000000000003e-01
	4.103957215417276e-02
	1.000000000009418e-01
	3.880068694103270e-01
	1.800002330072451e-12
	8.100001154175477e-12
	1.000000000009418e-01
	9.000011650294468e-13
	0.000000000000000e+00
	1.000000000000000e-01
	9.500000000000003e-01
	-1.893093767734959e-09
	7.021014880592702e-10
	-9.600006217081523e-12

 20	1.000000000000000e+00
	4.681127723151279e-11
	3.198282065634094e-08
	9.422859768489770e-09
	1.183455196558996e-09
	1.893752399307873e-12
	1.000000000000000e+00
	4.103957217884507e-02
	1.000000000013339e-01
	3.880068530942998e-01
	1.893752399307873e-12
	8.521876188227524e-12
	1.000000000013339e-01
	9.468761996468045e-13
	0.000000000000000e+00
	1.000000000000000e-01
	1.000000000000000e+00
	-2.188280168065394e-09
	9.944329804056906e-10
	-1.010000640189447e-11

 21	1.050000000000000e+00
	4.672105566586998e-11
	3.204593225652796e-08
	9.441443319848330e-09
	1.185793471170281e-09
	1.987502729649351e-12
	1.050000000000000e+00
	4.103957220339317e-02
	1.000000000018777e-01
	3.880068368596416e-01
	1.987502729649351e-12
	8.943751352832600e-12
	1.000000000018777e-01
	9.937513648171908e-13
	0.000000000000000e+00
	1.000000000000000e-01
	1.050000000000000e+00
	-2.596526960727785e-09
	1.399840243720973e-09
	-1.060000728299023e-11

 22	1.100000000000000e+00
	4.663813513475183e-11
	3.210892702127047e-08
	9.459992451992334e-09
	1.188127423612706e-09
	2.081254084719519e-12
	1.100000000000000e+00
	4.103957222782435e-02
	1.000000000026287e-01
	3.880068207059448e-01
	2.081254084719519e-12
	9.365627029802020e-12
	1.000000000026287e-01
	1.040627042351922e-12
	0.000000000000000e+00
	1.000000000000000e-01
	1.100000000000000e+00
	-3.159190031758570e-09
	1.959662654371641e-09
	-1.110001089669584e-11

 23	1.150000000000000e+00
	4.656119284168246e-11
	3.217181388077894e-08
	9.478509794142632e-09
	1.190457384211433e-09
	2.175008964681551e-12
	1.150000000000000e+00
	4.103957225212402e-02
	1.000000000036617e-01
	3.880068046328094e-01
	2.175008964681551e-12
	9.787504469217372e-12
	1.000000000036617e-01
	1.087504482332585e-12
	0.000000000000000e+00
	1.000000000000000e-01
	1.150000000000000e+00
	-3.932123239695301e-09
	2.729777293097868e-09
	-1.160002391011309e-11

 24	1.200000000000000e+00
	4.648924766469823e-11
	3.223460022018532e-08
	9.496997520974410e-09
	1.192783626143311e-09
	2.268774658162664e-12
	1.200000000000000e+00
	4.103957227630683e-02
	1.000000000050777e-01
	3.880067886398317e-01
	2.268774658162664e-12
	1.020938731539227e-11
	1.000000000050777e-01
	1.134387329072788e-12
	0.000000000000000e+00
	1.000000000000000e-01
	1.200000000000000e+00
	-4.990596833840917e-09
	3.785416424761934e-09
	-1.210006575958125e-11

 25	1.250000000000000e+00
	4.642156963619386e-11
	3.229729227657613e-08
	9.515457469393551e-09
	1.195106380122281e-09
	2.362570468107866e-12
	1.250000000000000e+00
	4.103957230036541e-02
	1.000000000070125e-01
	3.880067727266122e-01
	2.362570468107866e-12
	1.063128521979920e-11
	1.000000000070125e-01
	1.181285234045036e-12
	0.000000000000000e+00
	1.000000000000000e-01
	1.250000000000000e+00
	-6.435841709290229e-09
	5.227846600064368e-09
	-1.260018791962036e-11

 26	1.300000000000000e+00
	4.635761612156952e-11
	3.235989543294383e-08
	9.533891225005339e-09
	1.197425845272130e-09
	2.456460488774500e-12
	1.300000000000000e+00
	4.103957232431443e-02
	1.000000000096485e-01
	3.880067568927530e-01
	2.456460488774500e-12
	1.105323022956685e-11
	1.000000000096485e-01
	1.228230244377999e-12
	0.000000000000000e+00
	1.000000000000000e-01
	1.300000000000000e+00
	-8.403745903120251e-09
	7.192923590082501e-09
	-1.310056130825016e-11

 27	0.000000000000000e+00
	1.685918782378339e-07
	0.000000000000000e+00
	0.000000000000000e+00
	0.000000000000000e+00
	4.420877850200038e-18
	0.000000000000000e+00
	4.119874712370324e-02
	1.499999999999977e-01
	3.880071954297645e-01
	4.420877850200038e-18
	2.210438925083441e-18
	1.499999999999977e-01
	2.210438925083441e-18
	0.000000000000000e+00
	1.500000000000000e-01
	0.000000000000000e+00
	8.586301087048489e-13
	-1.719513420539442e-12
	-1.178900760935309e-17

 28	5.000000000000000e-02
	1.926071000507053e-08
	1.020054162238941e-07
	2.941175115943080e-08
	3.891812992274446e-09
	1.097915197359498e-13
	5.000000000000000e-02
	4.119874722442517e-02
	1.499999999999984e-01
	3.880071774878630e-01
	1.097915197359498e-13
	4.940441533464365e-13
	1.499999999999984e-01
	5.489575986756142e-14
	0.000000000000000e+00
	1.500000000000000e-01
	5.000000000000000e-02
	-3.892081406031133e-09
	-1.179500941361766e-12
	-5.855429822732962e-13

 29	1.000000000000000e-01
	2.132170194951917e-09
	1.114556609074033e-07
	3.209793661400189e-08
	4.249693639072976e-09
	2.058618975335926e-13
	1.000000000000000e-01
	4.119874732465034e-02
	1.499999999999988e-01
	3.880071596354397e-01
	2.058618975335926e-13
	9.263608495284212e-13
	1.499999999999988e-01
	1.029309487660210e-13
	0.000000000000000e+00
	1.500000000000000e-01
	1.000000000000000e-01
	-4.250710666219762e-09
	-9.379164112033322e-13
	-1.097918328498634e-12

 30	1.500000000000000e-01
	6.404798665683079e-10
	1.129862396202269e-07
	3.253477215159134e-08
	4.307817047802179e-09
	2.999476293517442e-13
	1.500000000000000e-01
	4.119874742437141e-02
	1.499999999999989e-01
	3.880071418720487e-01
	2.999476293517442e-13
	1.349746638404546e-12
	1.499999999999989e-01
	1.499738146747425e-13
	0.000000000000000e+00
	1.500000000000000e-01
	1.500000000000000e-01
	-4.309395457936274e-09
	-8.668621376273222e-13
	-1.599708895889349e-12

 31	2.000000000000000e-01
	3.496197087322801e-10
	1.135948612245405e-07
	3.270920004403067e-08
	4.331007349241436e-09
	3.937462065676134e-13
	2.000000000000000e-01
	4.119874752359564e-02
	1.499999999999989e-01
	3.880071241972441e-01
	3.937462065676134e-13
	1.771840231471828e-12
	1.499999999999989e-01
	1.968731032823239e-13
	0.000000000000000e+00
	1.500000000000000e-01
	2.000000000000000e-01
	-4.333145592121353e-09
	-8.100187187665142e-13
	-2.099967972000455e-12

 32	2.500000000000000e-01
	2.594263424179130e-10
	1.139838523070238e-07
	3.282092822051362e-08
	4.345862975436946e-09
	4.875032359437469e-13
	2.500000000000000e-01
	4.119874762232311e-02
	1.499999999999992e-01
	3.880071066105841e-01
	4.875032359437469e-13
	2.193746859214869e-12
	1.499999999999992e-01
	2.437516179700375e-13
	0.000000000000000e+00
	1.500000000000000e-01
	2.500000000000000e-01
	-4.348737385038883e-09
	-5.968558980384842e-13
	-2.600005459602433e-12

 33	3.000000000000000e-01
	2.229198183327241e-10
	1.142960399036085e-07
	3.291068842991742e-08
	4.357801183533964e-09
	5.812542538486624e-13
	3.000000000000000e-01
	4.119874772056829e-02
	1.500000000000000e-01
	3.880070891116274e-01
	5.812542538486624e-13
	2.615626435307402e-12
	1.500000000000000e-01
	2.906271269221422e-13
	0.000000000000000e+00
	1.500000000000000e-01
	3.000000000000000e-01
	-4.361716792540798e-09
	-4.263256414560601e-14
	-3.100010886004529e-12

 34	3.500000000000000e-01
	2.053775312212529e-10
	1.145745836408144e-07
	3.299081297221204e-08
	4.368460589812756e-09
	6.750044019702788e-13
	3.500000000000000e-01
	4.119874781831669e-02
	1.500000000000014e-01
	3.880070716999403e-01
	6.750044019702788e-13
	3.037502097351072e-12
	1.500000000000014e-01
	3.375022009825973e-13
	0.000000000000000e+00
	1.500000000000000e-01
	3.500000000000000e-01
	-4.373914987291370e-09
	9.947598300641403e-13
	-3.600011673546345e-12

 35	4.000000000000000e-01
	1.958665881032671e-10
	1.148360242930621e-07
	3.306603448242680e-08
	4.378469611160706e-09
	7.687544242490516e-13
	4.000000000000000e-01
	4.119874791557562e-02
	1.500000000000038e-01
	3.880070543750858e-01
	7.687544242490516e-13
	3.459377193080749e-12
	1.500000000000038e-01
	3.843772121216307e-13
	0.000000000000000e+00
	1.500000000000000e-01
	4.000000000000000e-01
	-4.386245818261428e-09
	2.827960088325199e-12
	-4.100011789912198e-12

 36	4.500000000000000e-01
	1.902201660626400e-10
	1.150877876826158e-07
	3.313847970790630e-08
	4.388110505778081e-09
	8.625044283240217e-13
	4.500000000000000e-01
	4.119874801235958e-02
	1.500000000000079e-01
	3.880070371366299e-01
	8.625044283240217e-13
	3.881252206873621e-12
	1.500000000000079e-01
	4.312522141587627e-13
	0.000000000000000e+00
	1.500000000000000e-01
	4.500000000000000e-01
	-4.399408801816349e-09
	5.854872142663226e-12
	-4.600011809177974e-12

 37	4.999999999999999e-01
	1.866183352104557e-10
	1.153336071330701e-07
	3.320921866922183e-08
	4.397525230203526e-09
	9.562544297691100e-13
	4.999999999999999e-01
	4.119874810864680e-02
	1.500000000000143e-01
	3.880070199841447e-01
	9.562544297691100e-13
	4.303127208813211e-12
	1.500000000000143e-01
	4.781272148809538e-13
	0.000000000000000e+00
	1.500000000000000e-01
	4.999999999999999e-01
	-4.414148857621055e-09
	1.067235189111670e-11
	-5.100011814405172e-12

 38	5.499999999999999e-01
	1.841806262394059e-10
	1.155755265884443e-07
	3.327883753741343e-08
	4.406791525660938e-09
	1.050004430837570e-12
	5.499999999999999e-01
	4.119874820445902e-02
	1.500000000000244e-01
	3.880070029171968e-01
	1.050004430837570e-12
	4.725002209039714e-12
	1.500000000000244e-01
	5.250022154148304e-13
	0.000000000000000e+00
	1.500000000000000e-01
	5.499999999999999e-01
	-4.431406632490779e-09
	1.816147232602816e-11
	-5.600011817611510e-12

 39	6.000000000000000e-01
	1.824457531655548e-10
	1.158147422687823e-07
	3.334767953745634e-08
	4.415954900517856e-09
	1.143754431855347e-12
	6.000000000000000e-01
	4.119874829979644e-02
	1.500000000000397e-01
	3.880069859353643e-01
	1.143754431855347e-12
	5.146877209020260e-12
	1.500000000000397e-01
	5.718772159233663e-13
	0.000000000000000e+00
	1.500000000000000e-01
	6.000000000000000e-01
	-4.452452371654141e-09
	2.957278866233537e-11
	-6.100011820535620e-12

 40	6.500000000000000e-01
	1.811561054447752e-10
	1.160519929507957e-07
	3.341595672982696e-08
	4.425043465557454e-09
	1.237504432869551e-12
	6.500000000000000e-01
	4.119874839465890e-02
	1.500000000000624e-01
	3.880069690382209e-01
	1.237504432869551e-12
	5.568752208967097e-12
	1.500000000000624e-01
	6.187522164301151e-13
	0.000000000000000e+00
	1.500000000000000e-01
	6.500000000000000e-01
	-4.479040093907763e-09
	4.651212748285616e-11
	-6.600011823428919e-12

 41	7.000000000000001e-01
	1.801600804399718e-10
	1.162877556401393e-07
	3.348380608393138e-08
	4.434075373802457e-09
	1.331254433886959e-12
	7.000000000000002e-01
	4.119874848904649e-02
	1.500000000000960e-01
	3.880069522253442e-01
	1.331254433886959e-12
	5.990627208910919e-12
	1.500000000000960e-01
	6.656272169384660e-13
	0.000000000000000e+00
	1.500000000000000e-01
	7.000000000000001e-01
	-4.513604969075710e-09
	7.155165349104209e-11
	-7.100011826327683e-12

 42	7.500000000000001e-01
	1.793644700489469e-10
	1.165223501030700e-07
	3.355131944717127e-08
	4.443062795876148e-09
	1.425004434908521e-12
	7.500000000000001e-01
	4.119874858295917e-02
	1.500000000001449e-01
	3.880069354963141e-01
	1.425004434908521e-12
	6.412502208856148e-12
	1.500000000001449e-01
	7.125022174488939e-13
	0.000000000000000e+00
	1.500000000000000e-01
	7.500000000000001e-01
	-4.559525434053085e-09
	1.080167066902504e-10
	-7.600011829237079e-12

 43	8.000000000000002e-01
	1.787098028429306e-10
	1.167559977305545e-07
	3.361856042777089e-08
	4.452014159031908e-09
	1.518754435934352e-12
	8.000000000000002e-01
	4.119874867641157e-02
	1.500000000002153e-01
	3.880069188507126e-01
	1.518754435934352e-12
	6.834377208803417e-12
	1.500000000002153e-01
	7.593772179614566e-13
	0.000000000000000e+00
	1.500000000000000e-01
	8.000000000000002e-01
	-4.621475311917681e-09
	1.604831822987762e-10
	-8.100011832157795e-12

 44	8.500000000000002e-01
	1.781569078945332e-10
	1.169888561954608e-07
	3.368557433818496e-08
	4.460935465627345e-09
	1.612504436964449e-12
	8.500000000000002e-01
	4.119874876939635e-02
	1.500000000003159e-01
	3.880069022881216e-01
	1.612504436964449e-12
	7.256252208752804e-12
	1.500000000003159e-01
	8.062522184761518e-13
	0.000000000000000e+00
	1.500000000000000e-01
	8.500000000000002e-01
	-4.705898165774599e-09
	2.354880734856124e-10
	-8.600011835089877e-12

 45	9.000000000000002e-01
	1.776792687602128e-10
	1.172210406532609e-07
	3.375239427956118e-08
	4.469831099780601e-09
	1.706254437998795e-12
	9.000000000000004e-01
	4.119874886191355e-02
	1.500000000004586e-01
	3.880068858081310e-01
	1.706254437998795e-12
	7.678127208704313e-12
	1.500000000004586e-01
	8.531272189929717e-13
	0.000000000000000e+00
	1.500000000000000e-01
	9.000000000000002e-01
	-4.821646167335863e-09
	3.418705318836146e-10
	-9.100011838033288e-12

 46	9.500000000000003e-01
	1.772585065874292e-10
	1.174526371515433e-07
	3.381904499121674e-08
	4.478704337645570e-09
	1.800004472895193e-12
	9.500000000000003e-01
	4.119874895397047e-02
	1.500000000006596e-01
	3.880068694103270e-01
	1.800004472895193e-12
	8.100002225586849e-12
	1.500000000006596e-01
	9.000022364408179e-13
	0.000000000000000e+00
	1.500000000000000e-01
	9.500000000000003e-01
	-4.980839424343781e-09
	4.916955731459893e-10
	-9.600011931275507e-12

 47	1.000000000000000e+00
	1.768816232773740e-10
	1.176837113664869e-07
	3.388554535923390e-08
	4.487557679899241e-09
	1.893754734270939e-12
	1.000000000000000e+00
	4.119874904557441e-02
	1.500000000009410e-01
	3.880068530942998e-01
	1.893754734270939e-12
	8.521877355709058e-12
	1.500000000009410e-01
	9.468773671283379e-13
	0.000000000000000e+00
	1.500000000000000e-01
	1.000000000000000e+00
	-5.200019960352573e-09
	7.014904213065165e-10
	-1.010001262846265e-11

 48	1.050000000000000e+00
	1.765392696414934e-10
	1.179143144486899e-07
	3.395191009541041e-08
	4.496393074241208e-09
	1.987505981247820e-12
	1.050000000000000e+00
	4.119874913671075e-02
	1.500000000013332e-01
	3.880068368596416e-01
	1.987505981247820e-12
	8.943752978631834e-12
	1.500000000013332e-01
	9.937529906164248e-13
	0.000000000000000e+00
	1.500000000000000e-01
	1.050000000000000e+00
	-5.501698754043582e-09
	9.938929679265129e-10
	-1.060001595391949e-11

 49	1.100000000000000e+00
	1.762246288386174e-10
	1.181444870309586e-07
	3.401815088855376e-08
	4.505212067949120e-09
	2.081261097974785e-12
	1.100000000000000e+00
	4.119874922740140e-02
	1.500000000018770e-01
	3.880068207059448e-01
	2.081261097974785e-12
	9.365630536429653e-12
	1.500000000018770e-01
	1.040630548979554e-12
	0.000000000000000e+00
	1.500000000000000e-01
	1.100000000000000e+00
	-5.916426278826232e-09
	1.399286020387080e-09
	-1.110002959870990e-11

 50	1.150000000000000e+00
	1.759326790830301e-10
	1.183742620377340e-07
	3.408427721168228e-08
	4.514015914828053e-09
	2.175029531008629e-12
	1.150000000000000e+00
	4.119874931764637e-02
	1.500000000026279e-01
	3.880068046328094e-01
	2.175029531008629e-12
	9.787514752380911e-12
	1.500000000026279e-01
	1.087514765496123e-12
	0.000000000000000e+00
	1.500000000000000e-01
	1.150000000000000e+00
	-6.485559290071590e-09
	1.959080009328318e-09
	-1.160007875365200e-11

 51	1.200000000000000e+00
	1.756596956928458e-10
	1.186036666949411e-07
	3.415029689959372e-08
	4.522805651727721e-09
	2.268838828286609e-12
	1.200000000000000e+00
	4.119874940743111e-02
	1.500000000036609e-01
	3.880067886398317e-01
	2.268838828286609e-12
	1.020941940045424e-11
	1.500000000036609e-01
	1.134419414134760e-12
	0.000000000000000e+00
	1.500000000000000e-01
	1.200000000000000e+00
	-7.264952419638844e-09
	2.729180437199830e-09
	-1.210023687991189e-11

 52	1.250000000000000e+00
	1.754029073983584e-10
	1.188327239942196e-07
	3.421621656970425e-08
	4.531582154291357e-09
	2.362761591324963e-12
	1.250000000000000e+00
	4.119874949677743e-02
	1.500000000050769e-01
	3.880067727266122e-01
	2.362761591324963e-12
	1.063138078140775e-11
	1.500000000050769e-01
	1.181380795653583e-12
	0.000000000000000e+00
	1.500000000000000e-01
	1.250000000000000e+00
	-8.329876693467392e-09
	3.784833779718610e-09
	-1.260069758153300e-11

 53	1.300000000000000e+00
	1.751602540367383e-10
	1.190614537768778e-07
	3.428204193363348e-08
	4.540346178228855e-09
	2.456973024450234e-12
	1.300000000000000e+00
	4.119874958568535e-02
	1.500000000070118e-01
	3.880067568927512e-01
	2.456973024450234e-12
	1.105348649740472e-11
	1.500000000070118e-01
	1.228486512215864e-12
	0.000000000000000e+00
	1.500000000000000e-01
	1.300000000000000e+00
	-9.781563947386842e-09
	5.227263955021044e-09
	-1.310192807005314e-11

 54	0.000000000000000e+00
	6.017268822270419e-07
	0.000000000000000e+00
	0.000000000000000e+00
	0.000000000000000e+00
	7.525694442213136e-18
	0.000000000000000e+00
	4.175302054238114e-02
	1.999999999999944e-01
	3.880071954297645e-01
	7.525694442213136e-18
	3.762847221061692e-18
	1.999999999999944e-01
	3.762847221078163e-18
	0.000000000000000e+00
	2.000000000000000e-01
	0.000000000000000e+00
	2.086977131497528e-12
	-4.177991286269389e-12
	-2.006851852757090e-17

 55	5.000000000000000e-02
	7.062852134285370e-08
	3.498395038174489e-07
	9.884690433299705e-08
	1.401408767227681e-08
	1.097946255911682e-13
	4.999999999999999e-02
	4.175302088165616e-02
	1.999999999999958e-01
	3.880071774878630e-01
	1.097946255911682e-13
	4.940457062740456e-13
	1.999999999999958e-01
	5.489731279517064e-14
	0.000000000000000e+00
	2.000000000000000e-01
	5.000000000000000e-02
	-1.401362819786049e-08
	-3.126388037344441e-12
	-5.855512645538850e-13

 56	1.000000000000000e-01
	7.799996469580454e-09
	3.834941728785760e-07
	1.082081586891011e-07
	1.532776276227102e-08
	2.058650057353199e-13
	1.000000000000000e-01
	4.175302121924350e-02
	1.999999999999966e-01
	3.880071596354397e-01
	2.058650057353199e-13
	9.263624036292849e-13
	1.999999999999966e-01
	1.029325028668847e-13
	0.000000000000000e+00
	2.000000000000000e-01
	1.000000000000000e-01
	-1.532835801496883e-08
	-2.557953848736361e-12
	-1.097926617036579e-12

 57	1.500000000000000e-01
	2.322165715134083e-09
	3.888715421271786e-07
	1.097103794843747e-07
	1.553962043523277e-08
	2.999507401727766e-13
	1.500000000000000e-01
	4.175302155515045e-02
	1.999999999999969e-01
	3.880071418720487e-01
	2.999507401727766e-13
	1.349748193815062e-12
	1.999999999999969e-01
	1.499753700852587e-13
	0.000000000000000e+00
	2.000000000000000e-01
	1.500000000000000e-01
	-1.554095393305386e-08
	-2.330580173293129e-12
	-1.599717191412108e-12

 58	2.000000000000000e-01
	1.258798187766408e-09
	3.909737933819547e-07
	1.103003935749505e-07
	1.562341914996354e-08
	3.937493200746531e-13
	2.000000000000000e-01
	4.175302188937697e-02
	1.999999999999970e-01
	3.880071241972441e-01
	3.937493200746531e-13
	1.771841788225348e-12
	1.999999999999970e-01
	1.968746600358437e-13
	0.000000000000000e+00
	2.000000000000000e-01
	2.000000000000000e-01
	-1.562531261298632e-08
	-2.273736754432321e-12
	-2.099976274685900e-12

 59	2.500000000000000e-01
	9.300194503935769e-10
	3.923018983452536e-07
	1.106740802521168e-07
	1.567678599673698e-08
	4.875063521669581e-13
	2.500000000000000e-01
	4.175302222193775e-02
	1.999999999999970e-01
	3.880071066105841e-01
	4.875063521669581e-13
	2.193748417326475e-12
	1.999999999999970e-01
	2.437531760816431e-13
	0.000000000000000e+00
	2.000000000000000e-01
	2.500000000000000e-01
	-1.567923913798092e-08
	-2.216893335571513e-12
	-2.600013769531003e-12

 60	3.000000000000000e-01
	7.971984682052467e-10
	3.933606204702956e-07
	1.109723314679200e-07
	1.571952740243492e-08
	5.812573728077220e-13
	3.000000000000000e-01
	4.175302255283994e-02
	1.999999999999973e-01
	3.880070891116274e-01
	5.812573728077220e-13
	2.615627994786932e-12
	1.999999999999973e-01
	2.906286864016720e-13
	0.000000000000000e+00
	2.000000000000000e-01
	3.000000000000000e-01
	-1.572271672203141e-08
	-1.961097950697877e-12
	-3.100019203228693e-12

 61	3.500000000000000e-01
	7.334601460799062e-10
	3.943017247675074e-07
	1.112375987167111e-07
	1.575761907385949e-08
	6.750075236807983e-13
	3.500000000000000e-01
	4.175302288209100e-02
	1.999999999999980e-01
	3.880070716999403e-01
	6.750075236807983e-13
	3.037503658206332e-12
	1.999999999999980e-01
	3.375037618378571e-13
	0.000000000000000e+00
	2.000000000000000e-01
	3.500000000000000e-01
	-1.576184961881513e-08
	-1.449507180950604e-12
	-3.600019998107738e-12

 62	4.000000000000000e-01
	6.989371474277828e-10
	3.951831761282610e-07
	1.114861196865077e-07
	1.579334873356627e-08
	7.687575487247411e-13
	4.000000000000000e-01
	4.175302320970550e-02
	1.999999999999995e-01
	3.880070543750858e-01
	7.687575487247411e-13
	3.459378755318594e-12
	1.999999999999995e-01
	3.843787743594754e-13
	0.000000000000000e+00
	2.000000000000000e-01
	4.000000000000000e-01
	-1.579911808889773e-08
	-3.694822225952521e-13
	-4.100020121847377e-12

 63	4.500000000000000e-01