Title: transistors characterization nmos transistor simulation testbench
Date: Fri Jul 10 16:13:38  2020
Plotname: DC transfer characteristic
Flags: real
No. Variables: 42
No. Points: 26
Variables:
	0	ng	voltage
	1	@m1[cbb]	capacitance
	2	@m1[cdb]	capacitance
	3	@m1[cdd]	capacitance
	4	@m1[cdg]	capacitance
	5	@m1[cds]	capacitance
	6	@m1[cgb]	capacitance
	7	@m1[cgd]	capacitance
	8	@m1[cgg]	capacitance
	9	@m1[cgs]	capacitance
	10	@m1[csb]	capacitance
	11	@m1[csd]	capacitance
	12	@m1[csg]	capacitance
	13	@m1[css]	capacitance
	14	@m1[gds]	admittance
	15	@m1[gm]	admittance
	16	@m1[gmbs]	admittance
	17	i(@m1[id])	current
	18	@m1[vbs]	voltage
	19	@m1[vds]	voltage
	20	@m1[vdsat]	voltage
	21	@m1[vdsat]	voltage
	22	@m1[vgs]	voltage
	23	@m1[vth]	voltage
	24	ao	notype
	25	fc	notype
	26	fom	notype
	27	ft	notype
	28	gmid	notype
	29	gmw	notype
	30	m1#body	voltage
	31	m1#dbody	voltage
	32	m1#gate	voltage
	33	m1#sbody	voltage
	34	nb	voltage
	35	nd	voltage
	36	v-sweep	voltage
	37	i(vds)	current
	38	veff	notype
	39	i(vgs)	current
	40	i(vsb)	current
	41	vth	voltage dims=1
Values:
 0	5.000000000000000e-02
	1.239674424782715e-13
	-6.369870171109194e-19
	4.065339259599855e-23
	-1.969134757545580e-18
	2.606081121263903e-18
	-1.239658503731300e-13
	-3.352417221504991e-23
	1.241236917543411e-13
	-1.578413476869856e-16
	-9.551181244122110e-19
	7.823753025726602e-24
	-2.952597680564448e-18
	3.907707981232773e-18
	4.429382817388724e-11
	2.880392777826970e-08
	8.693999230494034e-09
	1.047723957381526e-09
	2.457859322501337e-12
	1.300000000000000e+00
	4.103901604792985e-02
	4.103901604792985e-02
	5.000000004473013e-02
	3.880229552594838e-01
	5.626216993458318e+01
	7.085245766451685e+14
	6.379723665117499e+06
	2.320582587510922e+05
	2.749190526315398e+01
	2.880392777826970e-08
	2.457859322501337e-12
	1.105392964643027e-11
	5.000000004473013e-02
	1.228929661241412e-12
	0.000000000000000e+00
	1.300000000000000e+00
	5.000000000000000e-02
	-1.092388352698365e-08
	-3.380229552147536e-01
	9.862993977094447e-09
	-1.310429153152451e-11
	3.880229550014465e-01

 1	1.000000000000000e-01
	1.207810529747221e-13
	-2.945272197503500e-18
	1.927262279175293e-22
	-9.330357474293407e-18
	1.227543694556899e-17
	-1.207736914704878e-13
	-1.587491770468844e-22
	1.209473023095067e-13
	-1.736106802697186e-16
	-4.416232036786861e-18
	3.709653593425931e-23
	-1.399030294644834e-17
	1.840649788670853e-17
	1.731252406393861e-10
	1.107651455257402e-07
	3.263435731791093e-08
	4.098674603230508e-09
	2.458477857269353e-12
	1.300000000000000e+00
	4.108159023402656e-02
	4.108159023402656e-02
	1.000000000326210e-01
	3.880229552594838e-01
	5.612085464709829e+01
	5.747279273952192e+14
	2.474951074510481e+07
	9.158132790948069e+05
	2.702462533581880e+01
	1.107651455257402e-07
	2.458477857269353e-12
	1.105423891381427e-11
	1.000000000326210e-01
	1.229238928625418e-12
	0.000000000000000e+00
	1.300000000000000e+00
	1.000000000000000e-01
	-1.130500141706891e-08
	-2.880229552268628e-01
	7.192923590082501e-09
	-1.310594095757379e-11
	0.000000000000000e+00

 2	1.500000000000000e-01
	1.178300294653345e-13
	-1.356180756523970e-17
	9.121264131128488e-22
	-4.405389524049732e-17
	5.761479067932390e-17
	-1.177961326681586e-13
	-7.507614745325813e-22
	1.180590586714921e-13
	-2.629252525720358e-16
	-2.033498961074839e-17
	1.757081146642061e-22
	-6.605613323670107e-17
	8.639094713932553e-17
	6.543325061198123e-10
	4.075341179431057e-07
	1.173460541401040e-07
	1.554117569202566e-08
	2.464601721058441e-12
	1.300000000000000e+00
	4.124053006863163e-02
	4.124053006863163e-02
	1.500000000237065e-01
	3.880229552594818e-01
	5.588730954047990e+01
	4.467956547298070e+14
	9.052004464488529e+07
	3.451951273617208e+06
	2.622286280131404e+01
	4.075341179431057e-07
	2.464601721058441e-12
	1.105730084570879e-11
	1.500000000237065e-01
	1.232300860519939e-12
	0.000000000000000e+00
	1.300000000000000e+00
	1.500000000000000e-01
	-2.078242880182692e-08
	-2.380229552357752e-01
	5.227285271303117e-09
	-1.312227126102357e-11
	0.000000000000000e+00

 3	2.000000000000000e-01
	1.151022234049497e-13
	-6.145305818655497e-17
	4.284493805716635e-21
	-2.048240422630919e-16
	2.662728159558411e-16
	-1.149486257707710e-13
	-3.528761088143869e-21
	1.156356055353073e-13
	-6.869762357752458e-16
	-9.214457599222522e-17
	8.281578030489247e-22
	-3.071211694002321e-16
	3.992649172346490e-16
	2.333091465640100e-09
	1.401173760971870e-06
	3.952928128694117e-07
	5.603226267594621e-08
	2.486034263951369e-12
	1.300000000000000e+00
	4.179397898849961e-02
	4.179397898849961e-02
	2.000000000171597e-01
	3.880229552594763e-01
	5.557120461754829e+01
	3.270336764409224e+14
	3.030081100042109e+08
	1.211714812652619e+07
	2.500655326156180e+01
	1.401173760971870e-06
	2.486034263951369e-12
	1.106801711715517e-11
	2.000000000171597e-01
	1.243017131966322e-12
	0.000000000000000e+00
	1.300000000000000e+00
	2.000000000000000e-01
	-5.983109651512434e-08
	-1.880229552423165e-01
	3.783718227623467e-09
	-1.317942470878080e-11
	0.000000000000000e+00

 4	2.500000000000000e-01
	1.126425367412921e-13
	-2.644268186745832e-16
	1.956796921222425e-20
	-9.048812150874855e-16
	1.169288465792856e-15
	-1.119816205366011e-13
	-1.619167707487921e-20
	1.144702451360052e-13
	-2.488608407727118e-15
	-3.964893860165171e-16
	3.823110186412791e-21
	-1.356814055844201e-15
	1.753299618750534e-15
	7.589230946815827e-09
	4.426893345401161e-06
	1.228479766767665e-06
	1.884751118892868e-07
	2.553105597059190e-12
	1.300000000000000e+00
	4.351642381350389e-02
	4.351642381350389e-02
	2.500000000123594e-01
	3.880229552594595e-01
	5.531802579831518e+01
	2.262316184878116e+14
	9.083463912599753e+08
	3.867287381224219e+07
	2.348794650405400e+01
	4.426893345401161e-06
	2.553105597059190e-12
	1.110155278370883e-11
	2.500000000123594e-01
	1.276552798519980e-12
	0.000000000000000e+00
	1.300000000000000e+00
	2.500000000000000e-01
	-1.912179847373356e-07
	-1.380229552471001e-01
	2.725244030443719e-09
	-1.335828159720213e-11
	0.000000000000000e+00

 5	3.000000000000000e-01
	1.107502757817175e-13
	-1.055077624855876e-15
	8.415461342614147e-20
	-3.708922268699830e-15
	4.763915738942280e-15
	-1.081131852177961e-13
	-7.021690008027022e-20
	1.173908493668376e-13
	-9.277593932141365e-15
	-1.582012939065511e-15
	1.668548340738987e-20
	-5.561299016185223e-15
	7.143295269767316e-15
	2.176064759532354e-08
	1.287665947575841e-05
	3.531761199774977e-06
	5.867285919581980e-07
	2.731817926568506e-12
	1.300000000000000e+00
	4.808445789663999e-02
	4.808445789663999e-02
	3.000000000088140e-01
	3.880229552594128e-01
	5.544262790208477e+01
	1.530119259244135e+14
	2.407326100187480e+09
	1.096904873353443e+08
	2.194653482418975e+01
	1.287665947575841e-05
	2.731817926568506e-12
	1.119090894846282e-11
	3.000000000088140e-01
	1.365908963273965e-12
	0.000000000000000e+00
	1.300000000000000e+00
	3.000000000000000e-01
	-5.886975561960470e-07
	-8.802295525059883e-02
	1.943490701705741e-09
	-1.383484780958350e-11
	0.000000000000000e+00

 6	3.500000000000000e-01
	1.105481483732997e-13
	-4.050120359448139e-15
	3.447823084380691e-19
	-1.460277615747560e-14
	1.865255173461530e-14
	-1.004251804777874e-13
	-2.890699648409864e-19
	1.353044110035275e-13
	-3.487894145577527e-14
	-6.072847536064115e-15
	6.912682430685115e-20
	-2.189590769254877e-14
	2.796868610178858e-14
	5.379058310081441e-08
	3.424658872579581e-05
	9.341002279013820e-06
	1.689151912336111e-06
	3.106979041555806e-12
	1.300000000000000e+00
	5.803358925618924e-02
	5.803358925618924e-02
	3.500000000059413e-01
	3.880229552593140e-01
	5.607822132246793e+01
	9.932814964010048e+13
	5.131613893076891e+09
	2.531077033763737e+08
	2.027442793965907e+01
	3.424658872579581e-05
	3.106979041555806e-12
	1.137848950595506e-11
	3.500000000059413e-01
	1.553489520766202e-12
	0.000000000000000e+00
	1.300000000000000e+00
	3.500000000000000e-01
	-1.690527977620424e-06
	-3.802295525337268e-02
	1.310056063630327e-09
	-1.483527745029808e-11
	0.000000000000000e+00

 7	4.000000000000000e-01
	1.137265145480648e-13
	-1.250307019763871e-14
	1.294725208517125e-18
	-4.602651646245570e-14
	5.852829193488589e-14
	-8.247621977358597e-14
	-1.093040107160805e-18
	1.936056122182940e-13
	-1.111282994046008e-13
	-1.874722457684016e-14
	2.711888072350346e-19
	-6.901318899558081e-14
	8.776014238361373e-14
	1.141093306637557e-07
	7.915454270896820e-05
	2.161366278641070e-05
	4.407279427363787e-06
	3.644670208255091e-12
	1.300000000000000e+00
	7.556650866665324e-02
	7.556650866665324e-02
	4.000000000023232e-01
	3.880229552591722e-01
	5.682309372642368e+01
	6.113617174382932e+13
	7.342824694432904e+09
	4.088442571577933e+08
	1.795995557202836e+01
	7.915454270896820e-05
	3.644670208255091e-12
	1.164733508930269e-11
	4.000000000023232e-01
	1.822335104113820e-12
	0.000000000000000e+00
	1.300000000000000e+00
	4.000000000000000e-01
	-4.408061510949305e-06
	1.197704474315098e-02
	5.122871016283170e-10
	-1.626912056256886e-11
	0.000000000000000e+00

 8	4.500000000000000e-01
	1.176405219081791e-13
	-2.346178630121279e-14
	3.725815901262167e-18
	-8.755057993210235e-14
	1.110086404174139e-13
	-5.900074971099204e-14
	-3.188780056055624e-18
	2.768267311512011e-13
	-2.178227926601530e-13
	-3.517798589597424e-14
	8.404905255883593e-19
	-1.312726789802950e-13
	1.664498243857437e-13
	2.103628987171150e-07
	1.516509068833355e-04
	4.166851983527602e-05
	1.007407147827480e-05
	4.046559323025399e-12
	1.300000000000000e+00
	1.010034140009689e-01
	1.010034140009689e-01
	4.499999999958721e-01
	3.880229552590678e-01
	5.715751730357482e+01
	4.070273757540245e+13
	8.246638763073762e+09
	5.478188694158468e+08
	1.505358654744288e+01
	1.516509068833355e-04
	4.046559323025399e-12
	1.184827964668634e-11
	4.499999999958721e-01
	2.023279661497460e-12
	0.000000000000000e+00
	1.300000000000000e+00
	4.500000000000000e-01
	-1.007401306530941e-05
	6.197704473680432e-02
	-9.101910336539731e-10
	-1.734082486942478e-11
	0.000000000000000e+00

 9	4.999999999999999e-01
	1.186414246411167e-13
	-2.967077661611272e-14
	7.769301949941688e-18
	-1.112714559699509e-13
	1.409344632841137e-13
	-4.448478398127148e-14
	-6.726949994875940e-18
	3.284668957528247e-13
	-2.839753848215584e-13
	-4.448586404373253e-14
	1.849045738994494e-18
	-1.668343219519365e-13
	2.113183369499300e-13
	3.442374641759417e-07
	2.414020704965468e-04
	6.710977771981990e-05
	1.986290908385318e-05
	4.019256660739222e-12
	1.300000000000000e+00
	1.325979575547348e-01
	1.325979575547348e-01
	4.999999999853554e-01
	3.880229552590753e-01
	5.691765713694681e+01
	3.107126895722706e+13
	8.931975446196003e+09
	7.349357686206673e+08
	1.215340962783673e+01
	2.414020704965468e-04
	4.019256660739222e-12
	1.183462831554335e-11
	4.999999999853554e-01
	2.009628330354475e-12
	0.000000000000000e+00
	1.300000000000000e+00
	4.999999999999999e-01
	-1.986162153566616e-05
	1.119770447262802e-01
	-3.229118306080636e-09
	-1.726801776994051e-11
	0.000000000000000e+00

 10	5.499999999999999e-01
	1.181064450503257e-13
	-3.228092375705890e-14
	1.305285207075311e-17
	-1.210268468119925e-13
	1.532947177169807e-13
	-3.742856343309901e-14
	-1.137909397191228e-17
	3.518989265488609e-13
	-3.144589840217900e-13
	-4.839695786016782e-14
	3.196994019100365e-18
	-1.814538963542324e-13
	2.298476572203811e-13
	5.123782939302237e-07
	3.328078667231290e-04
	9.406461326438525e-05
	3.423744274755935e-05
	3.641128086512599e-12
	1.300000000000000e+00
	1.678828133488148e-01
	1.678828133488148e-01
	5.499999999690911e-01
	3.880229552591741e-01
	5.625205720120579e+01
	2.549694617843984e+13
	9.193225343246418e+09
	9.457484567714897e+08
	9.720581913111882e+00
	3.328078667231290e-04
	3.641128086512599e-12
	1.164556402843146e-11
	5.499999999690911e-01
	1.820564043242587e-12
	0.000000000000000e+00
	1.300000000000000e+00
	5.499999999999999e-01
	-3.423435636081682e-05
	1.619770447099170e-01
	-6.815398023718444e-09
	-1.625967490458182e-11
	0.000000000000000e+00

 11	6.000000000000000e-01
	1.172559310194197e-13
	-3.361470599196979e-14
	1.941920811788704e-17
	-1.257316576545778e-13
	1.593269444384297e-13
	-3.324739626840845e-14
	-1.699679442096808e-17
	3.642044059976097e-13
	-3.309400129347803e-13
	-5.039382875904150e-14
	4.832723214726373e-18
	-1.884992133201606e-13
	2.388882093559874e-13
	7.098277069184701e-07
	4.164583506245842e-04
	1.200838232660668e-04
	5.301026892118084e-05
	3.190743479846447e-12
	1.300000000000000e+00
	2.049081827318377e-01
	2.049081827318377e-01
	5.999999999443844e-01
	3.880229552592916e-01
	5.536837254969429e+01
	2.144569171391620e+13
	8.983342267705317e+09
	1.143474224272063e+09
	7.856182568019075e+00
	4.164583506245842e-04
	3.190743479846447e-12
	1.142037172510007e-11
	5.999999999443844e-01
	1.595371739911207e-12
	0.000000000000000e+00
	1.300000000000000e+00
	6.000000000000000e-01
	-5.300453340412192e-05
	2.119770446850928e-01
	-1.226322865477414e-08
	-1.505864928590690e-11
	0.000000000000000e+00

 12	6.500000000000000e-01
	1.164006382265936e-13
	-3.450542865409649e-14
	2.691442678489867e-17
	-1.286765124376643e-13
	1.631550266649759e-13
	-3.016924981809430e-14
	-2.361702823851299e-17
	3.722403668928507e-13
	-3.420475000465179e-13
	-5.172595975440277e-14
	6.764497500360920e-18
	-1.929042968313528e-13
	2.446234920882552e-13
	9.324904122296735e-07
	4.900022613921660e-04
	1.444200531680175e-04
	7.571318134379516e-05
	2.847683812789685e-12
	1.300000000000000e+00
	2.425401235878994e-01
	2.425401235878994e-01
	6.499999999075219e-01
	3.880229552593811e-01
	5.441107418395446e+01
	1.820593339431995e+13
	8.519246924827328e+09
	1.316359817400494e+09
	6.471822378816507e+00
	4.900022613921660e-04
	2.847683812789685e-12
	1.124884189157298e-11
	6.499999999075219e-01
	1.423841906384118e-12
	0.000000000000000e+00
	1.300000000000000e+00
	6.500000000000000e-01
	-7.570356747156265e-05
	2.619770446481408e-01
	-2.039143964793766e-08
	-1.414382350640447e-11
	0.000000000000000e+00

 13	7.000000000000001e-01
	1.155904081726559e-13
	-3.519493077505246e-14
	3.567416192551898e-17
	-1.308320040424644e-13
	1.659912606555913e-13
	-2.763954025714158e-14
	-3.135891691777096e-17
	3.781918600108208e-13
	-3.505209608367615e-13
	-5.275593714046181e-14
	9.026937275672219e-18
	-1.961243390748635e-13
	2.488712492780497e-13
	1.177774546025645e-06
	5.543229405747291e-04
	1.671318180868701e-04
	1.018565546056886e-04
	2.648637980155101e-12
	1.300000000000000e+00
	2.802380320205811e-01
	2.802380320205811e-01
	6.999999998535069e-01
	3.880229552594333e-01
	5.345401376066220e+01
	1.553849931308975e+13
	7.976723635606253e+09
	1.465718856452566e+09
	5.442192136977805e+00
	5.543229405747291e-04
	2.648637980155101e-12
	1.114931897525643e-11
	6.999999998535069e-01
	1.324318990067576e-12
	0.000000000000000e+00
	1.300000000000000e+00
	7.000000000000001e-01
	-1.018413309026868e-04
	3.119770445940736e-01
	-3.230175593671447e-08
	-1.361303461898181e-11
	0.000000000000000e+00

 14	7.500000000000001e-01
	1.148246659643432e-13
	-3.576400953868154e-14
	4.588373609903583e-17
	-1.325223422578957e-13
	1.682404680604782e-13
	-2.545579013940043e-14
	-4.038653781984864e-17
	3.828565560611320e-13
	-3.573603793839118e-13
	-5.360486628626129e-14
	1.166857804422089e-17
	-1.986452960348509e-13
	2.522384937430680e-13
	1.444328512900234e-06
	6.109181724234661e-04
	1.884589721322356e-04
	1.310169176571972e-04
	2.570389323216160e-12
	1.300000000000000e+00
	3.177834878399358e-01
	3.177834878399358e-01
	7.499999997756230e-01
	3.880229552594539e-01
	5.252634118042253e+01
	1.331448187010873e+13
	7.440508574588511e+09
	1.595684239310555e+09
	4.662895321823397e+00
	6.109181724234661e-04
	2.570389323216160e-12
	1.111019464678725e-11
	7.499999997756230e-01
	1.285194661598400e-12
	0.000000000000000e+00
	1.300000000000000e+00
	7.500000000000001e-01
	-1.309936858406094e-04
	3.619770445161692e-01
	-4.947514753439464e-08
	-1.340437153365520e-11
	0.000000000000000e+00

 15	8.000000000000002e-01
	1.140960332714856e-13
	-3.624843374206471e-14
	5.777106062700986e-17
	-1.338890495330988e-13
	1.700797122145365e-13
	-2.352127283719378e-14
	-5.090211809376771e-17
	3.866103822658288e-13
	-3.630382073105412e-13
	-5.432632669222708e-14
	1.474950269357334e-17
	-2.006791644339229e-13
	2.549907416234565e-13
	1.731642726355587e-06
	6.610099675683826e-04
	2.086033867502252e-04
	1.628401964189012e-04
	2.605715890688436e-12
	1.300000000000000e+00
	3.551064306233152e-01
	3.551064306233152e-01
	7.999999996648596e-01
	3.880229552594464e-01
	5.163499430772721e+01
	1.144188734626310e+13
	6.940342236779170e+09
	1.709757414413873e+09
	4.059255528456595e+00
	6.610099675683826e-04
	2.605715890688436e-12
	1.112785793052326e-11
	7.999999996648596e-01
	1.302857945334405e-12
	0.000000000000000e+00
	1.300000000000000e+00
	8.000000000000002e-01
	-1.628056729286814e-04
	4.119770444054132e-01
	-7.389849088212941e-08
	-1.349857571365175e-11
	0.000000000000000e+00

 16	8.500000000000002e-01
	1.133978637374441e-13
	-3.666862368920684e-14
	7.161024900130559e-17
	-1.350117827397636e-13
	1.716087961799691e-13
	-2.177836659882988e-14
	-6.314912169205417e-17
	3.896740136387836e-13
	-3.678324979182617e-13
	-5.495087344940740e-14
	1.834220604154287e-17
	-2.023451368846045e-13
	2.572776681279704e-13
	2.039780137838351e-06
	7.054502379397550e-04
	2.276973817578954e-04
	1.970238643351499e-04
	2.829814307121101e-12
	1.300000000000000e+00
	3.921969755508560e-01
	3.921969755508560e-01
	8.499999995091689e-01
	3.880229552593867e-01
	5.077766051431351e+01
	9.851246822600676e+12
	6.482051705078861e+09
	1.810359975899462e+09
	3.580531933632872e+00
	7.054502379397550e-04
	2.829814307121101e-12
	1.123990713873875e-11
	8.499999995091689e-01
	1.414907153549893e-12
	0.000000000000000e+00
	1.300000000000000e+00
	8.500000000000002e-01
	-1.969735930851456e-04
	4.619770442497822e-01
	-1.082282778952504e-07
	-1.409617149125259e-11
	0.000000000000000e+00

 17	9.000000000000002e-01
	1.127250151384954e-13
	-3.703814648355383e-14
	8.772956864870833e-17
	-1.359430634331750e-13
	1.728934803480801e-13
	-2.018809492639376e-14
	-7.741930745561002e-17
	3.921951494587964e-13
	-3.719296352249471e-13
	-5.549877372854782e-14
	2.253372062920324e-17
	-2.037216693186377e-13
	2.591979093265564e-13
	2.369253433967206e-06
	7.448323241223104e-04
	2.458229332197669e-04
	2.333009958076421e-04
	3.524304135740644e-12
	1.300000000000000e+00
	4.290661342627246e-01
	4.290661342627246e-01
	8.999999992925113e-01
	3.880229552592039e-01
	4.994893994142144e+01
	8.490094452701688e+12
	6.063148720426936e+09
	1.899137011638543e+09
	3.192580989823243e+00
	7.448323241223104e-04
	3.524304135740644e-12
	1.158715205304592e-11
	8.999999992925113e-01
	1.762152067857050e-12
	0.000000000000000e+00
	1.300000000000000e+00
	9.000000000000002e-01
	-2.332289730943989e-04
	5.119770440333073e-01
	-1.560013060952770e-07
	-1.594814436895688e-11
	0.000000000000000e+00

 18	9.500000000000003e-01
	1.120735648250916e-13
	-3.736674702320336e-14
	1.065223479068101e-16
	-1.367205103525244e-13
	1.739807350278209e-13
	-1.872226813481474e-14
	-9.406245897913078e-17
	3.942798231111977e-13
	-3.754634925174038e-13
	-5.598454966707348e-14
	2.742857181213132e-17
	-2.048648137115706e-13
	2.608219348068320e-13
	2.721008379022820e-06
	7.796019917365624e-04
	2.630334863323252e-04
	2.714302635096635e-04
	5.481178965073718e-12
	1.300000000000000e+00
	4.657300336928586e-01
	4.657300336928586e-01
	9.499999989936163e-01
	3.880229552586911e-01
	4.914286121695147e+01
	7.318670748964231e+12
	5.679146325748399e+09
	1.977280971632914e+09
	2.872199959046965e+00
	7.796019917365624e-04
	5.481178965073718e-12
	1.256558946770512e-11
	9.499999989936163e-01
	2.740589482516217e-12
	0.000000000000000e+00
	1.300000000000000e+00
	9.500000000000003e-01
	-2.713284505276154e-04
	5.619770437349252e-01
	-2.219076407072862e-07
	-2.116647725108235e-11
	0.000000000000000e+00

 19	1.000000000000000e+00
	1.114404794492780e-13
	-3.766173880294760e-14
	1.284609052476700e-16
	-1.373723400208054e-13
	1.749056179185053e-13
	-1.735967921780252e-14
	-1.134988319236125e-16
	3.960073325612242e-13
	-3.785341545114981e-13
	-5.641906142852790e-14
	3.315257088969229e-17
	-2.058164547232879e-13
	2.622023635809261e-13
	3.096478936592432e-06
	8.101275454351491e-04
	2.793682768041487e-04
	3.111904806929370e-04
	1.069723602920075e-11
	1.300000000000000e+00
	5.022043370136918e-01
	5.022043370136918e-01
	9.999999985843843e-01
	3.880229552573222e-01
	4.835370537804308e+01
	6.306413175847077e+12
	5.325706969912912e+09
	2.045738749824538e+09
	2.603317246823278e+00
	8.101275454351491e-04
	1.069723602920075e-11
	1.517361799974907e-11
	9.999999985843843e-01
	5.348618014560090e-12
	0.000000000000000e+00
	1.300000000000000e+00
	1.000000000000000e+00
	-3.110481722298053e-04
	6.119770433270620e-01
	-3.121433280739438e-07
	-3.507596276582708e-11
	0.000000000000000e+00

 20	1.050000000000000e+00
	1.108233721925912e-13
	-3.792877712292703e-14
	1.541140907341621e-16
	-1.379203795362235e-13
	1.756950425684164e-13
	-1.608393145761519e-14
	-1.362348455583379e-16
	3.974386677429835e-13
	-3.812185014398100e-13
	-5.681066361204901e-14
	3.985760973029421e-17
	-2.066088131779449e-13
	2.633796191802636e-13
	3.497697303477654e-06
	8.367362946161244e-04
	2.948600506306012e-04
	3.523777502487420e-04
	2.375907812425132e-11
	1.300000000000000e+00
	5.385027256436387e-01
	5.385027256436387e-01
	1.049999998027820e+00
	3.880229552538925e-01
	4.757612770650047e+01
	5.429330248974094e+12
	4.999178204394220e+09
	2.105321808187086e+09
	2.374543494943922e+00
	8.367362946161244e-04
	2.375907812425132e-11
	2.170453904722538e-11
	1.049999998027820e+00
	1.187953906203619e-11
	0.000000000000000e+00
	1.300000000000000e+00
	1.050000000000000e+00
	-3.521807595685730e-04
	6.619770427739275e-01
	-4.348657398622890e-07
	-6.990754171202018e-11
	0.000000000000000e+00

 21	1.100000000000000e+00
	1.102203361780501e-13
	-3.817234088927786e-14
	1.841693479494666e-16
	-1.383819309657078e-13
	1.763701025070362e-13
	-1.488207132009855e-14
	-1.628828352902648e-16
	3.986217781566102e-13
	-3.835768240012214e-13
	-5.716592396867371e-14
	4.772771253936522e-17
	-2.072672239775013e-13
	2.643854202336357e-13
	3.927457046540728e-06
	8.597309220660504e-04
	3.095387263050269e-04
	3.948038836992137e-04
	5.416170700695280e-11
	1.300000000000000e+00
	5.746368238457539e-01
	5.746368238457539e-01
	1.099999997275366e+00
	3.880229552459142e-01
	4.680502206732611e+01
	4.668154237598475e+12
	4.696590079465681e+09
	2.156758534472946e+09
	2.177615159229404e+00
	8.597309220660504e-04
	5.416170700695280e-11
	3.690585348846210e-11
	1.099999997275366e+00
	2.708085350327243e-11
	0.000000000000000e+00
	1.300000000000000e+00
	1.100000000000000e+00
	-3.945334927434600e-04
	7.119770420294518e-01
	-6.007818740272342e-07
	-1.509812187932104e-10
	0.000000000000000e+00

 22	1.150000000000000e+00
	1.096298300989222e-13
	-3.839605320544957e-14
	2.194605216783062e-16
	-1.387710100768006e-13
	1.769476027605719e-13
	-1.374367741233650e-14
	-1.941859706009659e-16
	3.995950703365054e-13
	-3.856572069535679e-13
	-5.749009948113615e-14
	5.698669195964995e-17
	-2.078119713372737e-13
	2.652450841264501e-13
	4.389539423535042e-06
	8.793956347364354e-04
	3.234329187456189e-04
	4.382953516623974e-04
	1.198933998944693e-10
	1.300000000000000e+00
	6.106165304316737e-01
	6.106165304316737e-01
	1.149999996263475e+00
	3.880229552286613e-01
	4.603530703189519e+01
	4.007078940719406e+12
	4.415517642284298e+09
	2.200716925751567e+09
	2.006399637598258e+00
	8.793956347364354e-04
	1.198933998944693e-10
	6.977169993197386e-11
	1.149999996263475e+00
	5.994669994678313e-11
	0.000000000000000e+00
	1.300000000000000e+00
	1.150000000000000e+00
	-4.379269621301458e-04
	7.619770410348135e-01
	-8.239038891133532e-07
	-3.262657332910551e-10
	0.000000000000000e+00

 23	1.200000000000000e+00
	1.090505984498595e-13
	-3.860290418442672e-14
	2.610030241353535e-16
	-1.390992088751871e-13
	1.774411100354784e-13
	-1.266022956638910e-14
	-2.310497943895948e-16
	4.003898250946987e-13
	-3.874985457339201e-13
	-5.778746469904363e-14
	6.790786918487575e-17
	-2.082595542152010e-13
	2.659791110450598e-13
	4.889023945519983e-06
	8.959977655189391e-04
	3.365704439216902e-04
	4.826924115370091e-04
	2.531179327665006e-10
	1.300000000000000e+00
	6.464503888795148e-01
	6.464503888795148e-01
	1.199999994909199e+00
	3.880229551936950e-01
	4.526169524475730e+01
	3.432901854249335e+12
	4.153941245687642e+09
	2.237813524124948e+09
	1.856249951528896e+00
	8.959977655189391e-04
	2.531179327665006e-10
	1.363839663674899e-10
	1.199999994909199e+00
	1.265589663822971e-10
	0.000000000000000e+00
	1.300000000000000e+00
	1.200000000000000e+00
	-4.821938152220565e-04
	8.119770397155037e-01
	-1.122521780416719e-06
	-6.815311545489201e-10
	0.000000000000000e+00

 24	1.250000000000000e+00
	1.084816150367565e-13
	-3.879541133380694e-14
	3.100384734684898e-16
	-1.393763193998042e-13
	1.778616922601426e-13
	-1.162465864793667e-14
	-2.745822947803321e-16
	4.010319209733156e-13
	-3.891326800305987e-13
	-5.806154505501286e-14
	8.082646428742851e-17
	-2.086235864857525e-13
	2.666043050764779e-13
	5.432716919493335e-06
	9.097876578809327e-04
	3.489783770298880e-04
	5.278482646420657e-04
	5.097362679459974e-10
	1.300000000000000e+00
	6.821458898301060e-01
	6.821458898301060e-01
	1.249999993104519e+00
	3.880229551263426e-01
	4.447845929834496e+01
	2.934434709676111e+12
	3.910137603901547e+09
	2.268616562175033e+09
	1.723578003041955e+00
	9.097876578809327e-04
	5.097362679459974e-10
	2.646931339562760e-10
	1.249999993104519e+00
	2.548681339710790e-10
	0.000000000000000e+00
	1.300000000000000e+00
	1.250000000000000e+00
	-5.271774297332992e-04
	8.619770379781762e-01
	-1.520453736247873e-06
	-1.365846715539529e-09
	0.000000000000000e+00

 25	1.300000000000000e+00
	1.079220426343680e-13
	-3.897573890727886e-14
	3.680915750628385e-16
	-1.396108017235775e-13
	1.782184490557935e-13
	-1.063101685118042e-14
	-3.261450182027419e-16
	4.015430972688999e-13
	-3.905859353995167e-13
	-5.831528687590870e-14
	9.615545675816833e-17
	-2.089154542152543e-13
	2.671345856344049e-13
	6.029748879237949e-06
	9.209980706957285e-04
	3.606829288964451e-04
	5.736281925615790e-04
	9.855992809448939e-10
	1.300000000000000e+00
	7.177096936844416e-01
	7.177096936844416e-01
	1.299999990709046e+00
	3.880229550014465e-01
	4.367918989941509e+01
	2.502089515465006e+12
	3.682602032460020e+09
	2.293646876163250e+09
	1.605566258141783e+00
	9.209980706957285e-04
	9.855992809448939e-10
	5.026246404539398e-10
	1.299999990709046e+00
	4.927996404687352e-10
	0.000000000000000e+00
	1.300000000000000e+00
	1.300000000000000e+00
	-5.727304352227981e-04
	9.119770357076000e-01
	-2.048655346698069e-06
	-2.634814751152595e-09
	0.000000000000000e+00

