Title: transistors characterization nmos transistor simulation testbench
Date: Wed Jul 22 15:51:44  2020
Plotname: DC transfer characteristic
Flags: real
No. Variables: 47
No. Points: 26
Variables:
	0	gmid	notype
	1	@m1[cbb]	capacitance
	2	@m1[cdb]	capacitance
	3	@m1[cdd]	capacitance
	4	@m1[cdg]	capacitance
	5	@m1[cds]	capacitance
	6	@m1[cgb]	capacitance
	7	@m1[cgd]	capacitance
	8	@m1[cgg]	capacitance
	9	@m1[cgs]	capacitance
	10	@m1[csb]	capacitance
	11	@m1[csd]	capacitance
	12	@m1[csg]	capacitance
	13	@m1[css]	capacitance
	14	@m1[gds]	admittance
	15	@m1[gm]	admittance
	16	@m1[gmbs]	admittance
	17	i(@m1[id])	current
	18	@m1[vbs]	voltage
	19	@m1[vds]	voltage
	20	@m1[vdsat]	voltage
	21	@m1[vdsat]	voltage
	22	@m1[vgs]	voltage
	23	@m1[vth]	voltage
	24	@m1[vth]	voltage
	25	ao	notype
	26	fc	notype
	27	fom	notype
	28	ft	notype
	29	gm	admittance
	30	gmw	notype
	31	i(id)	current
	32	m1#body	voltage
	33	m1#dbody	voltage
	34	m1#gate	voltage
	35	m1#sbody	voltage
	36	nb	voltage
	37	nd	voltage
	38	ng	voltage
	39	ro	notype
	40	v-sweep	voltage
	41	i(vbs)	current
	42	i(vds)	current
	43	veff	notype
	44	i(vgs)	current
	45	vth	voltage dims=1
	46	w	notype dims=1
Values:
 0	2.749190511069309e+01
	1.250944189293075e-13
	-6.427778962179671e-19
	4.102297459920485e-23
	-1.987036259000522e-18
	2.629773132243890e-18
	-1.250928123502628e-13
	-3.382894211940303e-23
	1.252520886534917e-13
	-1.592762693999880e-16
	-9.638011484142651e-19
	7.894879151571404e-24
	-2.979439892090142e-18
	3.943233145646763e-18
	4.469653074345416e-11
	2.906580132479982e-08
	8.773041532806054e-09
	1.057249441527228e-09
	2.472394645394038e-12
	1.300000000000000e+00
	4.103901737670621e-02
	4.103901737670621e-02
	5.000000451367755e-02
	3.880229552594799e-01
	3.880229552594799e-01
	5.626216970616398e+01
	1.352515590688441e+06
	1.015365240360393e+06
	3.693324403209375e+04
	2.906580132479982e-08
	2.906580132479982e-09
	1.057249441527228e-09
	2.472394645394038e-12
	1.106119730787656e-11
	5.000000451367755e-02
	1.236197322687353e-12
	0.000000000000000e+00
	1.300000000000000e+00
	5.000000000000000e-02
	2.237310107443744e+10
	5.000000000000000e-02
	-1.314305239260048e-12
	-1.101128288437289e-08
	-3.380229526556761e-01
	9.952658988621188e-09
	3.880229526556760e-01
	1.000000000000000e+01

 1	2.702462482804139e+01
	1.218790623456260e-13
	-2.972047695674849e-18
	1.944783042559645e-22
	-9.415179860032123e-18
	1.238703307740272e-17
	-1.218716339178851e-13
	-1.601923676173505e-22
	1.220468230395649e-13
	-1.751889614874388e-16
	-4.456380045169326e-18
	3.743378096676076e-23
	-1.411748894939503e-17
	1.857383156080422e-17
	1.746992211870346e-10
	1.117721701777449e-07
	3.293105362737447e-08
	4.135937904372587e-09
	2.478729490976228e-12
	1.300000000000000e+00
	4.108159157011498e-02
	4.108159157011498e-02
	1.000000032917527e-01
	3.880229552594781e-01
	3.880229552594781e-01
	5.612085428835860e+01
	1.122303709401596e+06
	3.939009330664455e+06
	1.457563002531397e+05
	1.117721701777449e-07
	1.117721701777449e-08
	4.135937904372587e-09
	2.478729490976228e-12
	1.106436473066763e-11
	1.000000032917527e-01
	1.239364745478424e-12
	0.000000000000000e+00
	1.300000000000000e+00
	1.000000000000000e-01
	5.724123972650059e+09
	1.000000000000000e-01
	-1.315994531416562e-12
	-1.139586753867464e-08
	-2.880229526556760e-01
	7.258314699276625e-09
	0.000000000000000e+00
	0.000000000000000e+00

 2	2.622286104515457e+01
	1.189012114156509e-13
	-1.368509771188999e-17
	9.204185391022493e-22
	-4.445438845678322e-17
	5.813856575013411e-17
	-1.188670064633064e-13
	-7.575866345478525e-22
	1.191323227115851e-13
	-2.653154906920308e-16
	-2.051985463256576e-17
	1.773054742132194e-22
	-6.665664842633687e-17
	8.717632575341654e-17
	6.602813725232387e-10
	4.112391763413095e-07
	1.184128951124075e-07
	1.568246789063842e-08
	2.540526510752842e-12
	1.300000000000000e+00
	4.124053142831744e-02
	4.124053142831744e-02
	1.500000023922033e-01
	3.880229552594632e-01
	3.880229552594632e-01
	5.588730870524340e+01
	9.037564917406167e+05
	1.440671870888597e+07
	5.493953800112909e+05
	4.112391763413095e-07
	4.112391763413095e-08
	1.568246789063842e-08
	2.540526510752842e-12
	1.109526324055571e-11
	1.500000023922033e-01
	1.270263255366489e-12
	0.000000000000000e+00
	1.300000000000000e+00
	1.500000000000000e-01
	1.514505847981960e+09
	1.500000000000000e-01
	-1.332473736702654e-12
	-2.095945958488856e-08
	-2.380229526556760e-01
	5.274808367872197e-09
	0.000000000000000e+00
	0.000000000000000e+00

 3	2.500654748478788e+01
	1.161486071637602e-13
	-6.201172552769695e-17
	4.323443977457097e-21
	-2.066860897804476e-16
	2.686934918641671e-16
	-1.159936131795149e-13
	-3.560840922481559e-21
	1.166868382429766e-13
	-6.932215026207336e-16
	-9.298225871765825e-17
	8.356865546071845e-22
	-3.099131961793421e-16
	4.028946192104554e-16
	2.354302391519926e-09
	1.413911905313965e-06
	3.988864410564668e-07
	5.654166798411829e-08
	2.756800420552434e-12
	1.300000000000000e+00
	4.179398042133994e-02
	4.179398042133994e-02
	2.000000017315713e-01
	3.880229552594053e-01
	3.880229552594053e-01
	5.557120215054289e+01
	6.972551623789513e+05
	4.822523425017549e+07
	1.928504295905387e+06
	1.413911905313965e-06
	1.413911905313965e-07
	5.654166798411829e-08
	2.756800420552434e-12
	1.120340019545469e-11
	2.000000017315713e-01
	1.378400210265440e-12
	0.000000000000000e+00
	1.300000000000000e+00
	2.000000000000000e-01
	4.247542726889917e+08
	2.000000000000000e-01
	-1.390146779359022e-12
	-6.036312754295092e-08
	-1.880229526556760e-01
	3.818114713283194e-09
	0.000000000000000e+00
	0.000000000000000e+00

 4	2.348792966358892e+01
	1.136665597460904e-13
	-2.668307081896809e-16
	1.974586056942991e-20
	-9.131074405330217e-16
	1.179918402862133e-15
	-1.129996351889077e-13
	-1.633887474459545e-20
	1.155108837304538e-13
	-2.511232202671303e-15
	-4.000938489929881e-16
	3.857865877243029e-21
	-1.369148777932493e-15
	1.769238769059596e-15
	7.658223719772116e-09
	4.467133903798438e-06
	1.239646668457437e-06
	1.901884911858965e-07
	3.433610851916316e-12
	1.300000000000000e+00
	4.351642545987840e-02
	4.351642545987840e-02
	2.500000012471799e-01
	3.880229552592281e-01
	3.880229552592281e-01
	5.531801843079177e+01
	5.164907839363292e+05
	1.445675874798199e+08
	6.154973620511523e+06
	4.467133903798438e-06
	4.467133903798437e-07
	1.901884911858965e-07
	3.433610851916316e-12
	1.154180541113410e-11
	2.500000012471799e-01
	1.716805425944734e-12
	0.000000000000000e+00
	1.300000000000000e+00
	2.500000000000000e-01
	1.305785827878317e+08
	2.500000000000000e-01
	-1.570629561191074e-12
	-1.929443901282703e-07
	-1.380229526556760e-01
	2.750031757869920e-09
	0.000000000000000e+00
	0.000000000000000e+00

 5	2.194649373527130e+01
	1.117570964469305e-13
	-1.064669265230780e-15
	8.491965750447562e-20
	-3.742639835650763e-15
	4.807224181224038e-15
	-1.090960322684340e-13
	-7.085523732864624e-20
	1.184580390363704e-13
	-9.361935912699038e-15
	-1.596394913265690e-15
	1.683717004737494e-20
	-5.611856417588412e-15
	7.208234493684058e-15
	2.195844560802307e-08
	1.299367552294104e-05
	3.563855813329539e-06
	5.920615693639599e-07
	5.236976473724906e-12
	1.300000000000000e+00
	4.808446013446826e-02
	4.808446013446826e-02
	3.000000008894203e-01
	3.880229552587545e-01
	3.880229552587545e-01
	5.544260846638791e+01
	3.634908797534507e+05
	3.831358187873549e+08
	1.745772347095237e+07
	1.299367552294104e-05
	1.299367552294104e-06
	5.920615693639599e-07
	5.236976473724906e-12
	1.244348822203163e-11
	3.000000008894203e-01
	2.618488236841979e-12
	0.000000000000000e+00
	1.300000000000000e+00
	3.000000000000000e-01
	4.554056411145172e+07
	3.000000000000000e-01
	-2.051527060699784e-12
	-5.940365241727731e-07
	-8.802295265567606e-02
	1.961171891551317e-09
	0.000000000000000e+00
	0.000000000000000e+00

 6	2.027434694395660e+01
	1.115531315566225e-13
	-4.086939698390380e-15
	3.479166988130083e-19
	-1.473552889889001e-14
	1.882212068058157e-14
	-1.013381365229105e-13
	-2.916978784482774e-19
	1.365344515079342e-13
	-3.519602328714528e-14
	-6.128055335321646e-15
	6.975525115206413e-20
	-2.209496174505077e-14
	2.822294732512128e-14
	5.427939563958662e-08
	3.455762593533943e-05
	9.425838974518051e-06
	1.704500077406459e-06
	9.022667212087833e-12
	1.300000000000000e+00
	5.803359309925579e-02
	5.803359309925579e-02
	3.500000005995375e-01
	3.880229552577604e-01
	3.880229552577604e-01
	5.607817791771715e+01
	2.294840849588233e+05
	8.167114702826217e+08
	4.028299764920754e+07
	3.455762593533943e-05
	3.455762593533943e-06
	1.704500077406459e-06
	9.022667212087833e-12
	1.433633359119890e-11
	3.500000005995375e-01
	4.511333606008642e-12
	0.000000000000000e+00
	1.300000000000000e+00
	3.500000000000000e-01
	1.842319702009887e+07
	3.500000000000000e-01
	-3.061044591685102e-12
	-1.705876743269668e-06
	-3.802295265567607e-02
	1.321980080959406e-09
	0.000000000000000e+00
	0.000000000000000e+00

 7	1.795982716012006e+01
	1.147603919753435e-13
	-1.261673452565846e-14
	1.306495445179894e-18
	-4.644493953995414e-14
	5.906036757016741e-14
	-8.322600347829926e-14
	-1.102976841792274e-18
	1.953656636252738e-13
	-1.121385571701327e-13
	-1.891765397138573e-14
	2.736541616853761e-19
	-6.964058192354383e-14
	8.855796224076789e-14
	1.151458508917249e-07
	7.987277607543197e-05
	2.180977530397296e-05
	4.447302046023590e-06
	1.444837085157772e-11
	1.300000000000000e+00
	7.556651674031811e-02
	7.556651674031811e-02
	4.000000002344401e-01
	3.880229552563375e-01
	3.880229552563375e-01
	5.682300971392927e+01
	1.551448916066589e+05
	1.168618686968865e+09
	6.506848181500277e+07
	7.987277607543197e-05
	7.987277607543197e-06
	4.447302046023590e-06
	1.444837085157772e-11
	1.704918541092349e-11
	4.000000002344401e-01
	7.224185425732373e-12
	0.000000000000000e+00
	1.300000000000000e+00
	4.000000000000000e-01
	8.684637720384127e+06
	4.000000000000000e-01
	-4.507898896631442e-12
	-4.448079330335161e-06
	1.197704734432392e-02
	5.169404904137309e-10
	0.000000000000000e+00
	0.000000000000000e+00

 8	1.505341798557027e+01
	1.187099811787540e-13
	-2.367507519344860e-14
	3.759686927737644e-18
	-8.834649401129998e-14
	1.120178095178208e-13
	-5.953712032870196e-14
	-3.217768942029519e-18
	2.793433372046076e-13
	-2.198029991069636e-13
	-3.549778565660343e-14
	8.481313419413118e-19
	-1.324660665454939e-13
	1.679630040707554e-13
	2.122727990050929e-07
	1.530251925582720e-04
	4.204610178931696e-05
	1.016547821265291e-05
	1.850363312235857e-11
	1.300000000000000e+00
	1.010034322602108e-01
	1.010034322602108e-01
	4.499999995834688e-01
	3.880229552552726e-01
	3.880229552552726e-01
	5.715737176320388e+01
	1.507961030701140e+05
	1.312441244259625e+09
	8.718559768404025e+07
	1.530251925582720e-04
	1.530251925582720e-05
	1.016547821265291e-05
	1.850363312235857e-11
	1.907681654629871e-11
	4.499999995834688e-01
	9.251816561106944e-12
	0.000000000000000e+00
	1.300000000000000e+00
	4.500000000000000e-01
	4.710919178938268e+06
	4.500000000000000e-01
	-5.589302169648651e-12
	-1.016540735951219e-05
	6.197704734432391e-02
	-9.184512039794868e-10
	0.000000000000000e+00
	0.000000000000000e+00

 9	1.215321747177537e+01
	1.197199830505387e-13
	-2.994051083522113e-14
	7.839931828807909e-18
	-1.122830142276400e-13
	1.422156851310324e-13
	-4.488919139624541e-14
	-6.788103963727135e-18
	3.314529574459559e-13
	-2.865569779457468e-13
	-4.489028081907218e-14
	1.865855210545536e-18
	-1.683509969570847e-13
	2.132394119209464e-13
	3.473613980838505e-07
	2.435863543523698e-04
	6.771692927994389e-05
	2.004295199341860e-05
	1.822797788065757e-11
	1.300000000000000e+00
	1.325979969199531e-01
	1.325979969199531e-01
	4.999999985222370e-01
	3.880229552553454e-01
	3.880229552553454e-01
	5.691742802960681e+01
	1.943623859265775e+05
	1.421485578892131e+09
	1.169637243958967e+08
	2.435863543523698e-04
	2.435863543523698e-05
	2.004295199341860e-05
	1.822797788065757e-11
	1.893898892544925e-11
	4.999999985222370e-01
	9.113988940257525e-12
	0.000000000000000e+00
	1.300000000000000e+00
	4.999999999999999e-01
	2.878846082254101e+06
	4.999999999999999e-01
	-5.515794105140063e-12
	-2.004164083113424e-05
	1.119770473443239e-01
	-3.258467273781207e-09
	0.000000000000000e+00
	0.000000000000000e+00

 10	9.720381657985310e+00
	1.191801400551995e-13
	-3.257438659206814e-14
	1.317151399936746e-17
	-1.221270904800452e-13
	1.546883055581140e-13
	-3.776882342089634e-14
	-1.148253996072909e-17
	3.550980067014327e-13
	-3.173177007405757e-13
	-4.883693004223499e-14
	3.226057508070848e-18
	-1.831034766401288e-13
	2.319371806248557e-13
	5.170266330866586e-07
	3.358142927508667e-04
	9.491415290710043e-05
	3.454743903753971e-05
	1.441229165354613e-11
	1.300000000000000e+00
	1.678828896864325e-01
	1.678828896864325e-01
	5.499999968810229e-01
	3.880229552563468e-01
	3.880229552563468e-01
	5.625172522703245e+01
	2.659665864410544e+05
	1.463033905289070e+09
	1.505119816038484e+08
	3.358142927508667e-04
	3.358142927508667e-05
	3.454743903753971e-05
	1.441229165354613e-11
	1.703114581190783e-11
	5.499999968810229e-01
	7.206145826716719e-12
	0.000000000000000e+00
	1.300000000000000e+00
	5.499999999999999e-01
	1.934136340385371e+06
	5.499999999999999e-01
	-4.498277777149153e-12
	-3.454431268383722e-05
	1.619770473443239e-01
	-6.877344471689639e-09
	0.000000000000000e+00
	0.000000000000000e+00

 11	7.855983996750545e+00
	1.183218941267177e-13
	-3.392029411111181e-14
	1.959574559848138e-17
	-1.268746723250847e-13
	1.607753706905981e-13
	-3.354964571586636e-14
	-1.715131004960595e-17
	3.675153540679864e-13
	-3.339485570420705e-13
	-5.085195429973955e-14
	4.876656862644808e-18
	-1.902128419348731e-13
	2.410599195777500e-13
	7.162665343085753e-07
	4.202142594575449e-04
	1.211664267246516e-04
	5.348970410725853e-05
	9.867589407744915e-12
	1.300000000000000e+00
	2.049083152954903e-01
	2.049083152954903e-01
	5.999999943878851e-01
	3.880229552575404e-01
	3.880229552575404e-01
	5.536792250440968e+01
	3.545020990588490e+05
	1.429604871959596e+09
	1.819765509388666e+08
	4.202142594575449e-04
	4.202142594575449e-05
	5.348970410725853e-05
	9.867589407744915e-12
	1.475879468902427e-11
	5.999999943878851e-01
	4.933794703833880e-12
	0.000000000000000e+00
	1.300000000000000e+00
	6.000000000000000e-01
	1.396128329470701e+06
	6.000000000000000e-01
	-3.286357177362211e-12
	-5.348390454084283e-05
	2.119770473443239e-01
	-1.237471325410411e-08
	0.000000000000000e+00
	0.000000000000000e+00

 12	6.471630323581110e+00
	1.174588260025939e-13
	-3.481911422567788e-14
	2.715910188176036e-17
	-1.298462984541703e-13
	1.646382535779664e-13
	-3.044351623916608e-14
	-2.383172716081314e-17
	3.756243689607286e-13
	-3.451570209944017e-13
	-5.219619553774997e-14
	6.825992542503447e-18
	-1.946579715691460e-13
	2.468473411143534e-13
	9.409497234973735e-07
	4.944144170800405e-04
	1.457197638762558e-04
	7.639719705226515e-05
	6.405931477751253e-12
	1.300000000000000e+00
	2.425403332690854e-01
	2.425403332690854e-01
	6.499999906681225e-01
	3.880229552584486e-01
	3.880229552584486e-01
	5.441049414560056e+01
	4.547680910977568e+05
	1.355723735026239e+09
	2.094872029519823e+08
	4.944144170800405e-04
	4.944144170800405e-05
	7.639719705226515e-05
	6.405931477751253e-12
	1.302796572404042e-11
	6.499999906681225e-01
	3.202965738850582e-12
	0.000000000000000e+00
	1.300000000000000e+00
	6.500000000000000e-01
	1.062756037892381e+06
	6.500000000000000e-01
	-2.363248395340004e-12
	-7.638748387429350e-05
	2.619770473443240e-01
	-2.057678982758659e-08
	0.000000000000000e+00
	0.000000000000000e+00

 13	5.442008550391531e+00
	1.166412302976505e-13
	-3.551488450773188e-14
	3.599846969714635e-17
	-1.320213853389170e-13
	1.675002713769517e-13
	-2.789080949477323e-14
	-3.164399551305096e-17
	3.816299662858901e-13
	-3.537075127956039e-13
	-5.323553629514543e-14
	9.108999620225854e-18
	-1.979072867782725e-13
	2.511337140737976e-13
	1.188462141844689e-06
	5.593067199311551e-04
	1.686333399544427e-04
	1.027757885258955e-04
	4.397484808042603e-12
	1.300000000000000e+00
	2.802383400991396e-01
	2.802383400991396e-01
	6.999999852175155e-01
	3.880229552589746e-01
	3.880229552589746e-01
	5.345329370708158e+01
	5.645641632442911e+05
	1.269366170182925e+09
	2.332532480294612e+08
	5.593067199311551e-04
	5.593067199311551e-05
	1.027757885258955e-04
	4.397484808042603e-12
	1.202374238919362e-11
	6.999999852175155e-01
	2.198742404004110e-12
	0.000000000000000e+00
	1.300000000000000e+00
	7.000000000000001e-01
	8.414235210284739e+05
	7.000000000000001e-01
	-1.827662616350367e-12
	-1.027604145216263e-04
	3.119770473443240e-01
	-3.259537839639393e-08
	0.000000000000000e+00
	0.000000000000000e+00

 14	4.662720779569884e+00
	1.158685269015616e-13
	-3.608913666175002e-14
	4.630085599299918e-17
	-1.337270901398620e-13
	1.697699259456191e-13
	-2.568720733964654e-14
	-4.075368375955172e-17
	3.863370683234038e-13
	-3.606091072999977e-13
	-5.409218290016504e-14
	1.177465473692318e-17
	-2.004511613433522e-13
	2.545315695887803e-13
	1.457441476039938e-06
	6.164029623579550e-04
	1.901492842601593e-04
	1.321981288390199e-04
	3.607953960034419e-12
	1.300000000000000e+00
	3.177839151798971e-01
	3.177839151798971e-01
	7.499999773583350e-01
	3.880229552591816e-01
	3.880229552591816e-01
	5.252547185300551e+01
	6.830638213671850e+05
	1.184016836699551e+09
	2.539326055910153e+08
	6.164029623579550e-04
	6.164029623579550e-05
	1.321981288390199e-04
	3.607953960034419e-12
	1.162897696519249e-11
	7.499999773583350e-01
	1.803976980003104e-12
	0.000000000000000e+00
	1.300000000000000e+00
	7.500000000000001e-01
	6.861338972712187e+05
	7.500000000000001e-01
	-1.617121056724014e-12
	-1.321746739259857e-04
	3.619770473443241e-01
	-4.992487157018388e-08
	0.000000000000000e+00
	0.000000000000000e+00

 15	4.059090021637544e+00
	1.151332704190906e-13
	-3.657796465409622e-14
	5.829624342858841e-17
	-1.351062218765937e-13
	1.716258902872614e-13
	-2.373510382759457e-14
	-5.136485696090472e-17
	3.901250198209170e-13
	-3.663385511363615e-13
	-5.482020193739980e-14
	1.488358683576503e-17
	-2.025035192346755e-13
	2.573088375852396e-13
	1.747375316107772e-06
	6.669365495410878e-04
	2.104713790997834e-04
	1.643069126296509e-04
	3.964467915412300e-12
	1.300000000000000e+00
	3.551069970873771e-01
	3.551069970873771e-01
	7.999999661812904e-01
	3.880229552590883e-01
	3.880229552590883e-01
	5.163396643746285e+01
	8.100648299431837e+05
	1.104407963057750e+09
	2.720826483695976e+08
	6.669365495410878e-04
	6.669365495410878e-05
	1.643069126296509e-04
	3.964467915412300e-12
	1.180723394288010e-11
	7.999999661812904e-01
	1.982233957690651e-12
	0.000000000000000e+00
	1.300000000000000e+00
	8.000000000000002e-01
	5.722868984022683e+05
	8.000000000000002e-01
	-1.712191444895903e-12
	-1.642720634025846e-04
	4.119770473443241e-01
	-7.457025485990698e-08
	0.000000000000000e+00
	0.000000000000000e+00

 16	3.580375227133474e+00
	1.144287540856660e-13
	-3.700197442480766e-14
	7.226123649958116e-17
	-1.362391615736555e-13
	1.731688747619635e-13
	-2.197635339374276e-14
	-6.372319154745840e-17
	3.932165019286692e-13
	-3.711764253433790e-13
	-5.545042626711559e-14
	1.850894953298508e-17
	-2.041846366342155e-13
	2.596165539517981e-13
	2.058329295972425e-06
	7.117673635735908e-04
	2.297332133816797e-04
	1.987968630157927e-04
	6.225839052145084e-12
	1.300000000000000e+00
	3.921976994832411e-01
	3.921976994832411e-01
	8.499999504707106e-01
	3.880229552584952e-01
	3.880229552584952e-01
	5.077646430424458e+01
	9.456807591840414e+05
	1.031466221840328e+09
	2.880888611963006e+08
	7.117673635735908e-04
	7.117673635735908e-05
	1.987968630157927e-04
	6.225839052145084e-12
	1.293791951123801e-11
	8.499999504707106e-01
	3.112919526048202e-12
	0.000000000000000e+00
	1.300000000000000e+00
	8.500000000000002e-01
	4.858309124573607e+05
	8.500000000000002e-01
	-2.315223748475765e-12
	-1.987461228881256e-04
	4.619770473443242e-01
	-1.092120833767751e-07
	0.000000000000000e+00
	0.000000000000000e+00

 17	3.192432769649604e+00
	1.137497889476607e-13
	-3.737485641037759e-14
	8.852708538313451e-17
	-1.371789082533120e-13
	1.744652375783065e-13
	-2.037162523613247e-14
	-7.812309738358519e-17
	3.957605566450564e-13
	-3.753108083115403e-13
	-5.600330730115060e-14
	2.273856618129253e-17
	-2.055736827085206e-13
	2.615542514434900e-13
	2.390823248286750e-06
	7.514943244447418e-04
	2.480175688523747e-04
	2.353986375497657e-04
	1.323386776720595e-11
	1.300000000000000e+00
	4.290670319699181e-01
	4.290670319699181e-01
	8.999999286080003e-01
	3.880229552566565e-01
	3.880229552566565e-01
	4.994756469479650e+01
	1.090231006276347e+06
	9.647950987159523e+08
	3.022131297135653e+08
	7.514943244447418e-04
	7.514943244447419e-05
	2.353986375497657e-04
	1.323386776720595e-11
	1.644193386874216e-11
	8.999999286080003e-01
	6.616933883551238e-12
	0.000000000000000e+00
	1.300000000000000e+00
	9.000000000000002e-01
	4.182659678905976e+05
	9.000000000000002e-01
	-4.184031407223357e-12
	-2.353259482553764e-04
	5.119770473443241e-01
	-1.574193599918061e-07
	0.000000000000000e+00
	0.000000000000000e+00

 18	2.872059888544402e+00
	1.130924167181891e-13
	-3.770644409347639e-14
	1.074906917390336e-16
	-1.379634226413250e-13
	1.755623760430623e-13
	-1.889247343574820e-14
	-9.491753579385842e-17
	3.978641812956775e-13
	-3.788767903241355e-13
	-5.649349918896448e-14
	2.767791173834145e-17
	-2.067272189961168e-13
	2.631930402733429e-13
	2.745814484706401e-06
	7.865674017940997e-04
	2.653784321481903e-04
	2.738687326581976e-04
	3.298046633697353e-11
	1.300000000000000e+00
	4.657311188873019e-01
	4.657311188873019e-01
	9.499998984468283e-01
	3.880229552514736e-01
	3.880229552514736e-01
	4.914129504054877e+01
	1.244219336465460e+06
	9.036801119524105e+08
	3.146452884067148e+08
	7.865674017940997e-04
	7.865674017940997e-05
	2.738687326581976e-04
	3.298046633697353e-11
	2.631523315355190e-11
	9.499998984468283e-01
	1.649023316835783e-11
	0.000000000000000e+00
	1.300000000000000e+00
	9.500000000000003e-01
	3.641906638521234e+05
	9.500000000000003e-01
	-9.449791029767283e-12
	-2.737659823397232e-04
	5.619770473443242e-01
	-2.239247445245951e-07
	0.000000000000000e+00
	0.000000000000000e+00

 19	2.603184986751775e+00
	1.124535765039154e-13
	-3.800411744852897e-14
	1.296286640423913e-16
	-1.386211777726938e-13
	1.764956665571804e-13
	-1.751749824144979e-14
	-1.145305795702135e-16
	3.996073947401205e-13
	-3.819753659191005e-13
	-5.693196081393663e-14
	3.345394024087224e-17
	-2.076875109276838e-13
	2.645860178013796e-13
	3.124753530173017e-06
	8.173583686276083e-04
	2.818554462984911e-04
	3.139839745493842e-04
	8.561505605880146e-11
	1.300000000000000e+00
	5.022056201927443e-01
	5.022056201927443e-01
	9.999998571517157e-01
	3.880229552376588e-01
	3.880229552376588e-01
	4.835193492376098e+01
	1.408355844315391e+06
	8.474306349418175e+08
	3.255360795543125e+08
	8.173583686276083e-04
	8.173583686276083e-05
	3.139839745493842e-04
	8.561505605880146e-11
	5.263252801426849e-11
	9.999998571517157e-01
	4.280752802906602e-11
	0.000000000000000e+00
	1.300000000000000e+00
	1.000000000000000e+00
	3.200252405010100e+05
	1.000000000000000e+00
	-2.348568163275477e-11
	-3.138403607224673e-04
	6.119770473443242e-01
	-3.149804674862366e-07
	0.000000000000000e+00
	0.000000000000000e+00

 20	2.374418710373784e+00
	1.118308598284704e-13
	-3.827358317940718e-14
	1.555150176849809e-16
	-1.391741991722381e-13
	1.772922673339603e-13
	-1.623015393340387e-14
	-1.374732464319580e-16
	4.010517413754212e-13
	-3.846841141955853e-13
	-5.732712271565940e-14
	4.021992279835712e-17
	-2.084870722477395e-13
	2.657739750406006e-13
	3.529695300024891e-06
	8.441976005753002e-04
	2.974817004888494e-04
	3.555386406310812e-04
	2.174203676606518e-10
	1.300000000000000e+00
	5.385042133708585e-01
	5.385042133708585e-01
	1.049999800989487e+00
	3.880229552030646e-01
	3.880229552030646e-01
	4.757413793580507e+01
	1.583605953444132e+06
	7.954651260850974e+08
	3.350146806920479e+08
	8.441976005753002e-04
	8.441976005753002e-05
	3.555386406310812e-04
	2.174203676606518e-10
	1.185351838146994e-10
	1.049999800989487e+00
	1.087101838294759e-10
	0.000000000000000e+00
	1.300000000000000e+00
	1.050000000000000e+00
	2.833105735764070e+05
	1.050000000000000e+00
	-5.863376475287529e-11
	-3.553398476706101e-04
	6.619770473443243e-01
	-4.388181826797677e-07
	0.000000000000000e+00
	0.000000000000000e+00

 21	2.177497522130805e+00
	1.112223425333784e-13
	-3.851936089997916e-14
	1.858434361651419e-16
	-1.396399461971321e-13
	1.779734636609461e-13
	-1.501736929322715e-14
	-1.643634299632234e-16
	4.022456066226766e-13
	-3.870638738994862e-13
	-5.768561234017212e-14
	4.816155402900842e-17
	-2.091514681831109e-13
	2.667889189692541e-13
	3.963463905166947e-06
	8.673905959777001e-04
	3.122874254933499e-04
	3.983428624657673e-04
	5.242088857457540e-10
	1.300000000000000e+00
	5.746385178916302e-01
	5.746385178916302e-01
	1.099999725060345e+00
	3.880229551225436e-01
	3.880229551225436e-01
	4.680279603711849e+01
	1.771263203133224e+06
	7.473107009295458e+08
	3.431970384968613e+08
	8.673905959777001e-04
	8.673905959777001e-05
	3.983428624657673e-04
	5.242088857457540e-10
	2.719294428561000e-10
	1.099999725060345e+00
	2.621044428708276e-10
	0.000000000000000e+00
	1.300000000000000e+00
	1.100000000000000e+00
	2.523045557943282e+05
	1.100000000000000e+00
	-1.404440363034369e-10
	-3.980700022855553e-04
	7.119770473443243e-01
	-6.062419402041996e-07
	0.000000000000000e+00
	0.000000000000000e+00

 22	2.006288828246271e+00
	1.106264693715059e-13
	-3.874510663983079e-14
	2.214553295003331e-16
	-1.400325620297142e-13
	1.785562133400447e-13
	-1.386862828353881e-14
	-1.959510422350422e-16
	4.032277461931690e-13
	-3.891631668673951e-13
	-5.801273444813633e-14
	5.750467720759079e-17
	-2.097011673639256e-13
	2.676563971348544e-13
	4.429881271882936e-06
	8.872241856879244e-04
	3.263015315199266e-04
	4.422215651090780e-04
	1.187496873364428e-09
	1.300000000000000e+00
	6.106184267188717e-01
	6.106184267188717e-01
	1.149999622951842e+00
	3.880229549484552e-01
	3.880229549484552e-01
	4.603282571154904e+01
	1.973049680498702e+06
	7.025812416026196e+08
	3.501894800544531e+08
	8.872241856879244e-04
	8.872241856879244e-05
	4.422215651090780e-04
	1.187496873364428e-09
	6.035734366629496e-10
	1.149999622951842e+00
	5.937484366775714e-10
	0.000000000000000e+00
	1.300000000000000e+00
	1.150000000000000e+00
	2.257396843448462e+05
	1.150000000000000e+00
	-3.173208331340689e-10
	-4.418498160163614e-04
	7.619770473443244e-01
	-8.313911887825043e-07
	0.000000000000000e+00
	0.000000000000000e+00

 23	1.856145659659162e+00
	1.100419735189182e-13
	-3.895383768212443e-14
	2.633753168672031e-16
	-1.403637440555367e-13
	1.790542064207939e-13
	-1.277533340109374e-14
	-2.331498369416622e-16
	4.040297253100202e-13
	-3.910212420719848e-13
	-5.831280243569999e-14
	6.852509186151199e-17
	-2.101528187586365e-13
	2.683970961024749e-13
	4.934080843344329e-06
	9.039681526543344e-04
	3.395521175814751e-04
	4.870135853564032e-04
	2.531841711598691e-09
	1.300000000000000e+00
	6.464524761636234e-01
	6.464524761636234e-01
	1.199999486293972e+00
	3.880229545956160e-01
	3.880229545956160e-01
	4.525893738596584e+01
	2.191253278804587e+06
	6.609551606544257e+08
	3.560901361457779e+08
	9.039681526543344e-04
	9.039681526543344e-05
	4.870135853564032e-04
	2.531841711598691e-09
	1.275745855775040e-09
	1.199999486293972e+00
	1.265920855789447e-09
	0.000000000000000e+00
	1.300000000000000e+00
	1.200000000000000e+00
	2.026719933762168e+05
	1.200000000000000e+00
	-6.758127902647215e-10
	-4.865104467266737e-04
	8.119770473443244e-01
	-1.132721792362901e-06
	0.000000000000000e+00
	0.000000000000000e+00

 24	1.723479928934913e+00
	1.094678195792940e-13
	-3.914809440715198e-14
	3.128562656859473e-16
	-1.406433733278103e-13
	1.794786114692764e-13
	-1.173035139871136e-14
	-2.770778408317709e-16
	4.046776578325330e-13
	-3.926702285929899e-13
	-5.858937377343068e-14
	8.156105532861046e-17
	-2.105201600336513e-13
	2.690279727517533e-13
	5.482940431690999e-06
	9.178751186119520e-04
	3.520665304058212e-04
	5.325708197711282e-04
	5.121324689664262e-09
	1.300000000000000e+00
	6.821481480300586e-01
	6.821481480300586e-01
	1.249999304186913e+00
	3.880229539159742e-01
	3.880229539159742e-01
	4.447540139467464e+01
	2.428916636517216e+06
	6.221580594513755e+08
	3.609894429323937e+08
	9.178751186119520e-04
	9.178751186119520e-05
	5.325708197711282e-04
	5.121324689664262e-09
	2.570487344798115e-09
	1.249999304186913e+00
	2.560662344812109e-09
	0.000000000000000e+00
	1.300000000000000e+00
	1.250000000000000e+00
	1.823838891664904e+05
	1.250000000000000e+00
	-1.366341584932115e-09
	-5.318938783273689e-04
	8.619770473443245e-01
	-1.534267856762028e-06
	0.000000000000000e+00
	0.000000000000000e+00

 25	1.605474113589653e+00
	1.089031628861707e-13
	-3.933006072997392e-14
	3.714366816932303e-16
	-1.408799868197453e-13
	1.798386108680260e-13
	-1.072768058966033e-14
	-3.291089240015055e-16
	4.051934807675567e-13
	-3.941366912538949e-13
	-5.884542156653643e-14
	9.702928522657027e-17
	-2.108146808067665e-13
	2.695630730880763e-13
	6.085685621837252e-06
	9.291799462941541e-04
	3.638712399347312e-04
	5.787573517561216e-04
	9.923144674284520e-09
	1.300000000000000e+00
	7.177120917557379e-01
	7.177120917557379e-01
	1.299999062464663e+00
	3.880229526556760e-01
	3.880229526556760e-01
	4.367580629346784e+01
	2.690100146672112e+06
	5.859503500219419e+08
	3.649702882544928e+08
	9.291799462941541e-04
	9.291799462941540e-05
	5.787573517561216e-04
	9.923144674284520e-09
	4.971397337090237e-09
	1.299999062464663e+00
	4.961572337103465e-09
	0.000000000000000e+00
	1.300000000000000e+00
	1.300000000000000e+00
	1.643200227779927e+05
	1.300000000000000e+00
	-2.646826915122096e-09
	-5.778514276079986e-04
	9.119770473443245e-01
	-2.067265418403963e-06
	0.000000000000000e+00
	0.000000000000000e+00

