Title: transistors characterization nmos transistor simulation testbench
Date: Wed Jul 22 19:42:09  2020
Plotname: DC transfer characteristic
Flags: real
No. Variables: 41
No. Points: 351
Variables:
	0	nd	voltage
	1	@m1[cbb]	capacitance
	2	@m1[cdb]	capacitance
	3	@m1[cdd]	capacitance
	4	@m1[cdg]	capacitance
	5	@m1[cds]	capacitance
	6	@m1[cgb]	capacitance
	7	@m1[cgd]	capacitance
	8	@m1[cgg]	capacitance
	9	@m1[cgs]	capacitance
	10	@m1[csb]	capacitance
	11	@m1[csd]	capacitance
	12	@m1[csg]	capacitance
	13	@m1[css]	capacitance
	14	@m1[gds]	admittance
	15	@m1[gm]	admittance
	16	@m1[gmbs]	admittance
	17	i(@m1[id])	current
	18	@m1[vbs]	voltage
	19	@m1[vds]	voltage
	20	@m1[vdsat]	voltage
	21	@m1[vgs]	voltage
	22	@m1[vth]	voltage
	23	index	notype dims=1
	24	m1#body	voltage
	25	m1#dbody	voltage
	26	m1#gate	voltage
	27	m1#sbody	voltage
	28	nb	voltage
	29	ng	voltage
	30	ngvec	voltage dims=13,27
	31	v-sweep	voltage
	32	i(vbs)	current
	33	i(vds)	current
	34	vdsat	voltage dims=13,27
	35	vdsat_point	voltage dims=1
	36	veff_point	notype dims=1
	37	i(vgs)	current
	38	vgs_point	voltage dims=1
	39	vth	voltage dims=13,27
	40	vth_point	voltage dims=1
Values:
 0	0.000000000000000e+00
	2.045818975423248e-15
	-8.979123877644658e-20
	2.856184000882849e-19
	-2.847576271915551e-19
	8.893046587971675e-20
	-2.045639392945695e-15
	-1.320343854386949e-19
	2.048738705007403e-15
	-2.967277676268824e-18
	-8.979123877628978e-20
	1.330924388078053e-19
	-2.847576271916015e-19
	2.414564271601288e-19
	8.702504406682940e-06
	0.000000000000000e+00
	0.000000000000000e+00
	0.000000000000000e+00
	1.155870206706696e-19
	0.000000000000000e+00
	3.911865668972766e-02
	9.999999998863326e-02
	3.892907250012246e-01
	1.300000000000000e+01
	1.155870206706696e-19
	5.779351033490137e-20
	9.999999998863326e-02
	5.779351033490136e-20
	0.000000000000000e+00
	1.000000000000000e-01
	1.000000000000000e-01
	0.000000000000000e+00
	-3.082320553523818e-20
	2.983776414820847e-13
	3.911865668972766e-02
	4.324996023000938e-01
	9.994232996081043e-01
	-5.967544167151395e-13
	1.300000000000000e+00
	3.892907250012246e-01
	3.005767003918957e-01

 1	5.000000000000000e-02
	2.045786132253298e-15
	-5.957084640468321e-20
	3.199939356021293e-21
	-1.891237310213170e-19
	2.454946380699789e-19
	-2.045644747087348e-15
	2.131086968050925e-20
	2.048723026451212e-15
	-3.099590233544308e-18
	-8.181431954540752e-20
	-1.196002228757915e-20
	-2.598583796254210e-19
	3.536327214585548e-19
	1.484696030347732e-06
	5.736217563941463e-06
	1.688139520641296e-06
	2.125779476934152e-07
	1.098342848531914e-13
	5.000000000000000e-02
	3.910469275115994e-02
	9.999999999317168e-02
	3.858784417374298e-01
	0.000000000000000e+00
	1.098342848531914e-13
	4.940655359050570e-13
	9.999999999317168e-02
	5.491714242616631e-14
	0.000000000000000e+00
	1.000000000000000e-01
	1.000000000000000e-01
	5.000000000000000e-02
	-5.856570225860153e-14
	-2.125779461490770e-07
	3.910469275115994e-02
	0.000000000000000e+00
	0.000000000000000e+00
	-3.584875452045111e-13
	0.000000000000000e+00
	3.858784417374298e-01
	0.000000000000000e+00

 2	1.000000000000000e-01
	2.045783353370570e-15
	-6.173442443676313e-20
	-9.186931852693764e-21
	-1.963927980600107e-19
	2.673141543494676e-19
	-2.045632298101661e-15
	2.989648355792055e-20
	2.048764296318533e-15
	-3.161894700430357e-18
	-8.932084447174510e-20
	-1.805177885900141e-20
	-2.842104876001595e-19
	3.915831109309815e-19
	6.904294740120878e-07
	6.973539770617030e-06
	2.047163135658316e-06
	2.588180696510896e-07
	2.060235175909876e-13
	1.000000000000000e-01
	3.909113746799294e-02
	9.999999999431644e-02
	3.824661755431978e-01
	0.000000000000000e+00
	2.060235175909876e-13
	9.264416595571182e-13
	9.999999999431644e-02
	1.030117587946883e-13
	0.000000000000000e+00
	1.000000000000000e-01
	1.000000000000000e-01
	1.000000000000000e-01
	-1.098349315318656e-13
	-2.588181794762422e-07
	3.909113746799294e-02
	0.000000000000000e+00
	0.000000000000000e+00
	-2.983871830175566e-13
	0.000000000000000e+00
	3.824661755431978e-01
	0.000000000000000e+00

 3	1.500000000000000e-01
	2.045782860898286e-15
	-6.708969570664874e-20
	-1.281094410001771e-20
	-2.138172519548057e-19
	2.937178917614722e-19
	-2.045617069505130e-15
	3.446606152865711e-20
	2.048814660251157e-15
	-3.232056807555922e-18
	-9.870169744957591e-20
	-2.093499310520639e-20
	-3.146021156529240e-19
	4.342388062074784e-19
	6.470351820478892e-07
	7.843551251712910e-06
	2.298552520798120e-06
	2.916015866472899e-07
	3.002661875285695e-13
	1.500000000000000e-01
	3.907802815132259e-02
	9.999999999546121e-02
	3.790539263366999e-01
	0.000000000000000e+00
	3.002661875285695e-13
	1.349905917492958e-12
	9.999999999546121e-02
	1.501330937631109e-13
	0.000000000000000e+00
	1.000000000000000e-01
	1.000000000000000e-01
	1.500000000000000e-01
	-1.600558384361490e-13
	-2.916018067935741e-07
	3.907802815132259e-02
	0.000000000000000e+00
	0.000000000000000e+00
	-2.382868208306022e-13
	0.000000000000000e+00
	3.790539263366999e-01
	0.000000000000000e+00

 4	2.000000000000000e-01
	2.045782965185186e-15
	-7.379016863836582e-20
	-1.512254289863915e-20
	-2.355848274340714e-19
	3.244975389710764e-19
	-2.045599817561588e-15
	3.872840332869923e-20
	2.048871767780970e-15
	-3.310678622709922e-18
	-1.093574549588360e-19
	-2.355186745674088e-20
	-3.491637529712924e-19
	4.820730753870260e-19
	6.818079419365977e-07
	8.717966536265033e-06
	2.550514102095293e-06
	3.246877029605997e-07
	3.942561956154224e-13
	2.000000000000000e-01
	3.906540525335880e-02
	9.999999999999963e-02
	3.756416940364822e-01
	0.000000000000000e+00
	3.942561956154224e-13
	1.772095225995731e-12
	9.999999999999963e-02
	1.971280978061699e-13
	0.000000000000000e+00
	1.000000000000000e-01
	1.000000000000000e-01
	2.000000000000000e-01
	-2.101327942795592e-13
	-3.246882114513382e-07
	3.906540525335880e-02
	0.000000000000000e+00
	0.000000000000000e+00
	-1.994931997373328e-17
	0.000000000000000e+00
	3.756416940364822e-01
	0.000000000000000e+00

 5	2.500000000000000e-01
	2.045783328578294e-15
	-8.151517183498947e-20
	-1.720026450307605e-20
	-2.606991256578731e-19
	3.594145619959386e-19
	-2.045580542010514e-15
	4.323556615293005e-20
	2.048935668448786e-15
	-3.398362004424874e-18
	-1.212713959452410e-19
	-2.630247467563566e-20
	-3.878659131546008e-19
	5.354397837754969e-19
	7.379908695347634e-07
	9.651517231588786e-06
	2.818934283434473e-06
	3.601245626833517e-07
	4.882424167978342e-13
	2.500000000000000e-01
	3.905331261175363e-02
	1.000000000104017e-01
	3.722294785614667e-01
	0.000000000000000e+00
	4.882424167978342e-13
	2.194116449641910e-12
	1.000000000104017e-01
	2.441212083970083e-13
	0.000000000000000e+00
	1.000000000000000e-01
	1.000000000000000e-01
	2.500000000000000e-01
	-2.601976608548095e-13
	-3.601256673475676e-07
	3.905331261175363e-02
	0.000000000000000e+00
	0.000000000000000e+00
	5.460892155140229e-13
	0.000000000000000e+00
	3.722294785614667e-01
	0.000000000000000e+00

 6	3.000000000000000e-01
	2.045783850658227e-15
	-9.022464961401868e-20
	-1.932334027521662e-20
	-2.890512673904365e-19
	3.985992572796718e-19
	-2.045559093157849e-15
	4.815850873324104e-20
	2.049006891336205e-15
	-3.495956687089581e-18
	-1.345328507644738e-19
	-2.930233978813442e-20
	-4.310168254001767e-19
	5.948520159526882e-19
	8.057694267498218e-07
	1.066414054254243e-05
	3.109533210793695e-06
	3.986780131480215e-07
	5.822653184609589e-13
	3.000000000000000e-01
	3.904179770966528e-02
	1.000000000303679e-01
	3.688172798309466e-01
	0.000000000000000e+00
	5.822653184609589e-13
	2.616131967613547e-12
	1.000000000303679e-01
	2.911326592282031e-13
	0.000000000000000e+00
	1.000000000000000e-01
	1.000000000000000e-01
	3.000000000000000e-01
	-3.102707058305947e-13
	-3.986802161128224e-07
	3.904179770966528e-02
	0.000000000000000e+00
	0.000000000000000e+00
	1.594316692554720e-12
	0.000000000000000e+00
	3.688172798309466e-01
	0.000000000000000e+00

 7	3.500000000000000e-01
	2.045784496796651e-15
	-9.996356555798330e-20
	-2.159881922881055e-20
	-3.208031196869038e-19
	4.423655044736976e-19
	-2.045535263461587e-15
	5.359086468837641e-20
	2.049086156089771e-15
	-3.604483492872051e-18
	-1.492697695054396e-19
	-3.261144128643817e-20
	-4.790502735569775e-19
	6.609314843485341e-19
	8.828094426201232e-07
	1.176868340820074e-05
	3.425941794263277e-06
	4.408561619774526e-07
	6.763359390269329e-13
	3.500000000000000e-01
	3.903091195210916e-02
	1.000000000653845e-01
	3.654050977645926e-01
	0.000000000000000e+00
	6.763359390269329e-13
	3.038167865879394e-12
	1.000000000653845e-01
	3.381679695108223e-13
	0.000000000000000e+00
	1.000000000000000e-01
	1.000000000000000e-01
	3.500000000000000e-01
	-3.603562439033348e-13
	-4.408602533965202e-07
	3.903091195210916e-02
	0.000000000000000e+00
	0.000000000000000e+00
	3.432684692050714e-12
	0.000000000000000e+00
	3.654050977645926e-01
	0.000000000000000e+00

 8	4.000000000000000e-01
	2.045785256368718e-15
	-1.108142151792265e-19
	-2.408478076868715e-20
	-3.562371760607789e-19
	4.911361720086925e-19
	-2.045508808086354e-15
	5.960805229502562e-20
	2.049174308830560e-15
	-3.725108796500645e-18
	-1.656340671843625e-19
	-3.627675108595097e-20
	-5.324798845367741e-19
	7.343907028070481e-19
	9.686797455191317e-07
	1.297623427463078e-05
	3.771259370933394e-06
	4.871071186101522e-07
	7.704617866968800e-13
	3.999999999999999e-01
	3.902071095910524e-02
	1.000000001234713e-01
	3.619929322824394e-01
	0.000000000000000e+00
	7.704617866968800e-13
	3.460230874304657e-12
	1.000000001234713e-01
	3.852308933454279e-13
	0.000000000000000e+00
	1.000000000000000e-01
	1.000000000000000e-01
	4.000000000000000e-01
	-4.104564756443074e-13
	-4.871143096898535e-07
	3.902071095910524e-02
	0.000000000000000e+00
	0.000000000000000e+00
	6.482245296091094e-12
	0.000000000000000e+00
	3.619929322824394e-01
	0.000000000000000e+00

 9	4.500000000000000e-01
	2.045786129555443e-15
	-1.228816736851870e-19
	-2.682352729625983e-20
	-3.957110143851537e-19
	5.454162153666005e-19
	-2.045479449620218e-15
	6.628341424443689e-20
	2.049272308303423e-15
	-3.859142097449589e-18
	-1.837982615399321e-19
	-4.034346073827224e-20
	-5.918890879536629e-19
	8.160308102319974e-19
	1.063612619736459e-06
	1.429765954766684e-05
	4.148502351992451e-06
	5.378764973331466e-07
	8.646506320927100e-13
	4.500000000000000e-01
	3.901125487606859e-02
	1.000000002162180e-01
	3.585807833048912e-01
	0.000000000000000e+00
	8.646506320927100e-13
	3.882325308757958e-12
	1.000000002162180e-01
	4.323253160429747e-13
	0.000000000000000e+00
	1.000000000000000e-01
	1.000000000000000e-01
	4.500000000000000e-01
	-4.605735019232009e-13
	-5.378886077262672e-07
	3.901125487606859e-02
	0.000000000000000e+00
	0.000000000000000e+00
	1.135144235553387e-11
	0.000000000000000e+00
	3.585807833048912e-01
	0.000000000000000e+00

 10	4.999999999999999e-01
	2.045787122448475e-15
	-1.362890153251317e-19
	-2.985269718027488e-20
	-4.396426318933885e-19
	6.057843443987951e-19
	-2.045446878018968e-15
	7.369396839757434e-20
	2.049381227262198e-15
	-4.008043211627673e-18
	-2.039554141815192e-19
	-4.485886687431789e-20
	-6.579315645058983e-19
	9.067458455619055e-19
	1.168140279329108e-06
	1.574418928533149e-05
	4.560774418853233e-06
	5.936298482684920e-07
	9.589111266392034e-13
	4.999999999999999e-01
	3.900260870181505e-02
	1.000000003602100e-01
	3.551686507527205e-01
	0.000000000000000e+00
	9.589111266392034e-13
	4.304455557248248e-12
	1.000000003602100e-01
	4.794555633158528e-13
	0.000000000000000e+00
	1.000000000000000e-01
	1.000000000000000e-01
	4.999999999999999e-01
	-5.107096339397296e-13
	-5.936495683801639e-07
	3.900260870181505e-02
	0.000000000000000e+00
	0.000000000000000e+00
	1.891102378859255e-11
	0.000000000000000e+00
	3.551686507527205e-01
	0.000000000000000e+00

 11	5.499999999999999e-01
	2.045788245066433e-15
	-1.511760401919022e-19
	-3.320970437144575e-20
	-4.885069001741943e-19
	6.728926447375422e-19
	-2.045410748704745e-15
	8.192308180994258e-20
	2.049502259842319e-15
	-4.173434219384663e-18
	-2.263203214961970e-19
	-4.987413110708349e-20
	-7.313357154764000e-19
	1.007530168079711e-18
	1.282967469153084e-06
	1.732769941008233e-05
	5.011347627767207e-06
	6.548639579525438e-07
	1.053252976859523e-12
	5.499999999999999e-01
	3.899484263446121e-02
	1.000000005789879e-01
	3.517565345470658e-01
	0.000000000000000e+00
	1.053252976859523e-12
	4.726626482050679e-12
	1.000000005789879e-01
	5.266264884256438e-13
	0.000000000000000e+00
	1.000000000000000e-01
	1.000000000000000e-01
	5.499999999999999e-01
	-5.608674607009766e-13
	-6.548952140612165e-07
	3.899484263446121e-02
	0.000000000000000e+00
	0.000000000000000e+00
	3.039686384542772e-11
	0.000000000000000e+00
	3.517565345470658e-01
	0.000000000000000e+00

 12	6.000000000000000e-01
	2.045789510552630e-15
	-1.676994870975779e-19
	-3.693384264254020e-20
	-5.428367684044881e-19
	7.474700981446062e-19
	-2.045370679745604e-15
	9.106211410512145e-20
	2.049636732003327e-15
	-4.357114371827756e-18
	-2.511313199281288e-19
	-5.544533993762459e-20
	-8.129111585424010e-19
	1.119487818408192e-18
	1.408921784505143e-06
	1.906088027688428e-05
	5.503710036780851e-06
	7.221140485776880e-07
	1.147687066419337e-12
	6.000000000000000e-01
	3.898803243538964e-02
	1.000000009057249e-01
	3.483444346094257e-01
	0.000000000000000e+00
	1.147687066419337e-12
	5.148843526302239e-12
	1.000000009057249e-01
	5.738435332051819e-13
	0.000000000000000e+00
	1.000000000000000e-01
	1.000000000000000e-01
	6.000000000000000e-01
	-6.110498846047330e-13
	-7.221625085626761e-07
	3.898803243538964e-02
	0.000000000000000e+00
	0.000000000000000e+00
	4.755055810906628e-11
	0.000000000000000e+00
	3.483444346094257e-01
	0.000000000000000e+00

 13	6.500000000000000e-01
	2.045790934918550e-15
	-1.860339883286128e-19
	-4.106748528343268e-20
	-6.032268732675840e-19
	8.303283468796295e-19
	-2.045326248444612e-15
	1.012117041096919e-19
	2.049786114017880e-15
	-4.561077277378347e-18
	-2.786524856099175e-19
	-6.163432583069519e-20
	-9.035565657956394e-19
	1.243843377236316e-18
	1.546933669226719e-06
	2.095735808260520e-05
	6.041599352040447e-06
	7.959593443980531e-07
	1.242225581719469e-12
	6.500000000000000e-01
	3.898225981132405e-02
	1.000000013868780e-01
	3.449323508616643e-01
	0.000000000000000e+00
	1.242225581719469e-12
	5.571112783392038e-12
	1.000000013868780e-01
	6.211127908548782e-13
	0.000000000000000e+00
	1.000000000000000e-01
	1.000000000000000e-01
	6.500000000000000e-01
	-6.612601553704667e-13
	-7.960331151314283e-07
	3.898225981132405e-02
	0.000000000000000e+00
	0.000000000000000e+00
	7.281109569434729e-11
	0.000000000000000e+00
	3.449323508616643e-01
	0.000000000000000e+00

 14	7.000000000000001e-01
	2.045792537076008e-15
	-2.063734657639364e-19
	-4.565691391914117e-20
	-6.703386144011168e-19
	9.223689940841945e-19
	-2.045276987460458e-15
	1.124829528364913e-19
	2.049952034639064e-15
	-4.787530131442643e-18
	-3.091761497856246e-19
	-6.850942043970191e-20
	-1.004268607069879e-18
	1.381954177294879e-18
	1.698029175280502e-06
	2.303179569241002e-05
	6.629030391932521e-06
	8.770279985784555e-07
	1.336882149148336e-12
	7.000000000000001e-01
	3.897761281441184e-02
	1.000000020871495e-01
	3.415202832260063e-01
	0.000000000000000e+00
	1.336882149148336e-12
	5.993441066541586e-12
	1.000000020871495e-01
	6.684410745689417e-13
	0.000000000000000e+00
	1.000000000000000e-01
	1.000000000000000e-01
	7.000000000000001e-01
	-7.115019067035789e-13
	-8.771385838043027e-07
	3.897761281441184e-02
	0.000000000000000e+00
	0.000000000000000e+00
	1.095753470597982e-10
	0.000000000000000e+00
	3.415202832260063e-01
	0.000000000000000e+00

 15	7.500000000000001e-01
	2.045794339047743e-15
	-2.289328400866865e-19
	-5.075299667705875e-20
	-7.449062984916608e-19
	1.024592135255406e-18
	-2.045222380501864e-15
	1.249986095944488e-19
	2.050136296831136e-15
	-5.038914938866807e-18
	-3.430257057920467e-19
	-7.614621172383915e-20
	-1.116151933998423e-18
	1.535323851514333e-18
	1.863328814468745e-06
	2.529998467481044e-05
	7.270319830260296e-06
	9.660018277096551e-07
	1.431671985623906e-12
	7.500000000000001e-01
	3.897418626004218e-02
	1.000000030962118e-01
	3.381082316250338e-01
	0.000000000000000e+00
	1.431671985623906e-12
	6.415835984213816e-12
	1.000000030962118e-01
	7.158359928063558e-13
	0.000000000000000e+00
	1.000000000000000e-01
	1.000000000000000e-01
	7.500000000000001e-01
	-7.617791964491270e-13
	-9.661654389840832e-07
	3.897418626004218e-02
	0.000000000000000e+00
	0.000000000000000e+00
	1.625511183989126e-10
	0.000000000000000e+00
	3.381082316250338e-01
	0.000000000000000e+00

 16	8.000000000000002e-01
	2.045796366309099e-15
	-2.539499980371406e-19
	-5.641181504750098e-20
	-8.277441868605598e-19
	1.138105999945201e-18
	-2.045161857604653e-15
	1.388943117464534e-19
	2.050340895055469e-15
	-5.317931762562406e-18
	-3.805587064086471e-19
	-8.462833917246172e-20
	-1.240430213964635e-18
	1.705617259545212e-18
	2.044049646256377e-06
	2.777893427262458e-05
	7.970109899197715e-06
	1.063621077673497e-06
	1.526612063329993e-12
	8.000000000000002e-01
	3.897208216194059e-02
	1.000000045377999e-01
	3.346961959816852e-01
	0.000000000000000e+00
	1.526612063329993e-12
	6.838306022501209e-12
	1.000000045377999e-01
	7.633060316590283e-13
	0.000000000000000e+00
	1.000000000000000e-01
	1.000000000000000e-01
	8.000000000000002e-01
	-8.120965505228369e-13
	-1.063860422640032e-06
	3.897208216194059e-02
	0.000000000000000e+00
	0.000000000000000e+00
	2.382344928969493e-10
	0.000000000000000e+00
	3.346961959816852e-01
	0.000000000000000e+00

 17	8.500000000000002e-01
	2.045798648242978e-15
	-2.816879962088132e-19
	-6.269528824705026e-20
	-9.197543879660293e-19
	1.264137672421893e-18
	-2.045094789985754e-15
	1.543199050787445e-19
	2.050568034150566e-15
	-5.627564069890887e-18
	-4.221702610148635e-19
	-9.404834597393292e-20
	-1.378458257777337e-18
	1.894676864765693e-18
	2.241509314638763e-06
	3.048696036173671e-05
	8.733391946559150e-06
	1.170689346422737e-06
	1.621721289571739e-12
	8.500000000000002e-01
	3.897141018386648e-02
	1.000000065819751e-01
	3.312841762192612e-01
	0.000000000000000e+00
	1.621721289571739e-12
	7.260860635056415e-12
	1.000000065819751e-01
	8.108606447795297e-13
	0.000000000000000e+00
	1.000000000000000e-01
	1.000000000000000e-01
	8.500000000000002e-01
	-8.624590108727551e-13
	-1.171036060949848e-06
	3.897141018386648e-02
	0.000000000000000e+00
	0.000000000000000e+00
	3.455536898289147e-10
	0.000000000000000e+00
	3.312841762192612e-01
	0.000000000000000e+00

 18	9.000000000000002e-01
	2.045801218705746e-15
	-3.124374962168833e-19
	-6.967182130413793e-20
	-1.021935588612767e-18
	1.404044906133788e-18
	-2.045020484462223e-15
	1.714408610601195e-19
	2.050820149865500e-15
	-5.971106264336733e-18
	-4.682967473060959e-19
	-1.045086002453935e-19
	-1.531735302685072e-18
	2.104540650236585e-18
	2.457131447483855e-06
	3.344377621882911e-05
	9.565530379503860e-06
	1.288078744668132e-06
	1.717020702762424e-12
	9.000000000000002e-01
	3.897228810700339e-02
	1.000000094616322e-01
	3.278721722614111e-01
	0.000000000000000e+00
	1.717020702762424e-12
	7.683510341086089e-12
	1.000000094616322e-01
	8.585103513744996e-13
	0.000000000000000e+00
	1.000000000000000e-01
	1.000000000000000e-01
	9.000000000000002e-01
	-9.128721877424283e-13
	-1.288576691610215e-06
	3.897228810700339e-02
	0.000000000000000e+00
	0.000000000000000e+00
	4.967356925095201e-10
	0.000000000000000e+00
	3.278721722614111e-01
	0.000000000000000e+00

 19	9.500000000000003e-01
	2.045804116710485e-15
	-3.465194344920546e-19
	-7.741699239928962e-20
	-1.135392644919054e-18
	1.559329071810398e-18
	-2.044938177420964e-15
	1.904398019732597e-19
	2.051099931112767e-15
	-6.352193493775606e-18
	-5.194198550286279e-19
	-1.161222943436944e-19
	-1.701919522131786e-18
	2.337461671503759e-18
	2.692452163581464e-06
	3.667058634954529e-05
	1.047228735810010e-05
	1.416735355484815e-06
	1.837105294899136e-12
	9.500000000000002e-01
	3.897484231187782e-02
	1.000000134946737e-01
	3.244601840321318e-01
	0.000000000000000e+00
	1.837105294899136e-12
	8.118552636588682e-12
	1.000000134946737e-01
	9.185526474423861e-13
	0.000000000000000e+00
	1.000000000000000e-01
	1.000000000000000e-01
	9.500000000000003e-01
	-9.698947456693195e-13
	-1.417445094128662e-06
	3.897484231187782e-02
	0.000000000000000e+00
	0.000000000000000e+00
	7.084703709109297e-10
	0.000000000000000e+00
	3.244601840321318e-01
	0.000000000000000e+00

 20	1.000000000000000e+00
	2.045807387240317e-15
	-3.842879344114753e-19
	-8.601428968265378e-20
	-1.261347068948409e-18
	1.731649293042538e-18
	-2.044847028325259e-15
	2.115181419538988e-19
	2.051410344005988e-15
	-6.774833822682515e-18
	-5.760709806468152e-19
	-1.290145297847139e-19
	-1.890843839325248e-18
	2.595929349756447e-18
	2.949127594722042e-06
	4.019018437506890e-05
	1.145984852598957e-05
	1.557685045731118e-06
	2.131889516399595e-12
	1.000000000000000e+00
	3.897920827335825e-02
	1.000000191137404e-01
	3.210482114557404e-01
	0.000000000000000e+00
	2.131889516399595e-12
	8.640944746772493e-12
	1.000000191137404e-01
	1.065944758191463e-12
	0.000000000000000e+00
	1.000000000000000e-01
	1.000000000000000e-01
	1.000000000000000e+00
	-1.073503871461394e-12
	-1.558689888981853e-06
	3.897920827335825e-02
	0.000000000000000e+00
	0.000000000000000e+00
	1.003471368499209e-09
	0.000000000000000e+00
	3.210482114557404e-01
	0.000000000000000e+00

 21	1.050000000000000e+00
	2.045811082209175e-15
	-4.261334708663327e-19
	-9.555590503453345e-20
	-1.401148455293196e-18
	1.922837831194063e-18
	-2.044746112745753e-15
	2.348978500623032e-19
	2.051754657741797e-15
	-7.243442846106280e-18
	-6.388359925559920e-19
	-1.433234945441021e-19
	-2.100533125017333e-18
	2.882692612117554e-18
	3.228942409293051e-06
	4.402705587445924e-05
	1.253485003379905e-05
	1.712039679885002e-06
	3.274182509673304e-12
	1.050000000000000e+00
	3.898553106698931e-02
	1.000000269060056e-01
	3.176362544567681e-01
	0.000000000000000e+00
	3.274182509673304e-12
	9.587091242839751e-12
	1.000000269060056e-01
	1.637091254823852e-12
	0.000000000000000e+00
	1.000000000000000e-01
	1.000000000000000e-01
	1.050000000000000e+00
	-1.403115336562071e-12
	-1.713453946670850e-06
	3.898553106698931e-02
	0.000000000000000e+00
	0.000000000000000e+00
	1.412565293033852e-09
	0.000000000000000e+00
	3.176362544567681e-01
	0.000000000000000e+00

 22	1.100000000000000e+00
	2.045815261592078e-15
	-4.724862987046769e-19
	-1.061435907450906e-19
	-1.556286896750368e-18
	2.134916786200136e-18
	-2.044634414906689e-15
	2.608233400467970e-19
	2.052136472376138e-15
	-7.762880809495757e-18
	-7.083603866841000e-19
	-1.592017391132341e-19
	-2.333222861860745e-18
	3.200784987658321e-18
	3.533819361553315e-06
	4.820748705178523e-05
	1.370440710039648e-05
	1.881003787484336e-06
	8.076841035258225e-12
	1.100000000000000e+00
	3.899396588460143e-02
	1.000000376663528e-01
	3.142243129595345e-01
	0.000000000000000e+00
	8.076841035258225e-12
	1.236342050504889e-11
	1.000000376663528e-01
	4.038420517597536e-12
	0.000000000000000e+00
	1.000000000000000e-01
	1.000000000000000e-01
	1.100000000000000e+00
	-2.708824277675942e-12
	-1.882984278210177e-06
	3.899396588460143e-02
	0.000000000000000e+00
	0.000000000000000e+00
	1.977483524151502e-09
	0.000000000000000e+00
	3.142243129595345e-01
	0.000000000000000e+00

 23	1.150000000000000e+00
	2.045819994752176e-15
	-5.238201571312024e-19
	-1.178895842596777e-19
	-1.728406441157610e-18
	2.370116182548490e-18
	-2.044510819742658e-15
	2.895634901805563e-19
	2.052559748534042e-15
	-8.338492281563951e-18
	-7.853548523869739e-19
	-1.768175574697372e-19
	-2.591379358938158e-18
	3.553551768795157e-18
	3.865829908152190e-06
	5.275968010134373e-05
	1.497614435598102e-05
	2.065881737352714e-06
	2.675100747969537e-11
	1.150000000000000e+00
	3.900467855680884e-02
	1.000000524683284e-01
	3.108123868867614e-01
	0.000000000000000e+00
	2.675100747969537e-11
	2.207550372663212e-11
	1.000000524683284e-01
	1.337550373974310e-11
	0.000000000000000e+00
	1.000000000000000e-01
	1.000000000000000e-01
	1.150000000000000e+00
	-7.713601999917625e-12
	-2.068644336574985e-06
	3.900467855680884e-02
	0.000000000000000e+00
	0.000000000000000e+00
	2.754587242331796e-09
	0.000000000000000e+00
	3.108123868867614e-01
	0.000000000000000e+00

 24	1.200000000000000e+00
	2.045825361999308e-15
	-5.806562626004823e-19
	-1.309176056783563e-19
	-1.919319643557656e-18
	2.630893511836495e-18
	-2.044374104468165e-15
	3.214137953730522e-19
	2.053028839081587e-15
	-8.976148408795672e-18
	-8.706012685426120e-19
	-1.963564790311568e-19
	-2.877721601294725e-18
	3.944679348868782e-18
	4.227205941916097e-06
	5.771387616323411e-05
	1.635822821416740e-05
	2.268085474575492e-06
	9.234946177883475e-11
	1.200000000000000e+00
	3.901784607968938e-02
	1.000000727586760e-01
	3.074004761555444e-01
	0.000000000000000e+00
	9.234946177883475e-11
	5.524973087539050e-11
	1.000000727586760e-01
	4.617473088905634e-11
	0.000000000000000e+00
	1.000000000000000e-01
	1.000000000000000e-01
	1.200000000000000e+00
	-2.523152315944080e-11
	-2.271930834968917e-06
	3.901784607968938e-02
	0.000000000000000e+00
	0.000000000000000e+00
	3.819830491844090e-09
	0.000000000000000e+00
	3.074004761555444e-01
	0.000000000000000e+00

 25	1.250000000000000e+00
	2.045831456427276e-15
	-6.435676031495598e-19
	-1.453639324882067e-19
	-2.131023270052100e-18
	2.919954805689866e-18
	-2.044222929674082e-15
	3.566986527022533e-19
	2.053548522783489e-15
	-9.682291762109935e-18
	-9.649591500451843e-19
	-2.180228776997336e-19
	-3.195244821378029e-18
	4.378226849122856e-18
	4.620352698481834e-06
	6.310248679001438e-05
	1.785940152616533e-05
	2.489142879616913e-06
	3.016880694119958e-10
	1.250000000000000e+00
	3.903365714262716e-02
	1.000001004831204e-01
	3.039885806666122e-01
	0.000000000000000e+00
	3.016880694119958e-10
	1.602940346906207e-10
	1.000001004831204e-01
	1.508440347048184e-10
	0.000000000000000e+00
	1.000000000000000e-01
	1.000000000000000e-01
	1.250000000000000e+00
	-8.108015190337771e-11
	-2.494499621968902e-06
	3.903365714262716e-02
	0.000000000000000e+00
	0.000000000000000e+00
	5.275363821992396e-09
	0.000000000000000e+00
	3.039885806666122e-01
	0.000000000000000e+00

 26	1.300000000000000e+00
	2.045838386097339e-15
	-7.131835479373016e-19
	-1.613785560158632e-19
	-2.365715213073372e-18
	3.240277317026537e-18
	-2.044055829983579e-15
	3.957737807022325e-19
	2.054124039974811e-15
	-1.046398377193472e-17
	-1.069372565822505e-18
	-2.420417043353873e-19
	-3.547245883599088e-18
	4.858660153756883e-18
	5.047862897181405e-06
	6.896023488521676e-05
	1.948902077950293e-05
	2.730706813196561e-06
	9.145876074279603e-10
	1.300000000000000e+00
	3.905231265404997e-02
	1.000001382535164e-01
	3.005767002783434e-01
	0.000000000000000e+00
	9.145876074279603e-10
	4.671188036957392e-10
	1.000001382535164e-01
	4.572938037104046e-10
	0.000000000000000e+00
	1.000000000000000e-01
	1.000000000000000e-01
	1.300000000000000e+00
	-2.445450288299017e-10
	-2.738209966217476e-06
	3.905231265404997e-02
	0.000000000000000e+00
	0.000000000000000e+00
	7.258309613067393e-09
	0.000000000000000e+00
	3.005767002783434e-01
	0.000000000000000e+00

 27	0.000000000000000e+00
	1.949982722360568e-15
	-1.875030292263467e-18
	6.347662425895887e-18
	-6.256608142620083e-18
	1.783976008987663e-18
	-1.946232661776041e-15
	-2.935502149343667e-18
	1.961321649172829e-15
	-1.215348524744375e-17
	-1.875030292263154e-18
	2.960337484717599e-18
	-6.256608142620339e-18
	5.171300950165830e-18
	1.174178177461874e-04
	0.000000000000000e+00
	0.000000000000000e+00
	0.000000000000000e+00
	3.751982042144671e-19
	0.000000000000000e+00
	3.968324062732252e-02
	1.999999999278569e-01
	3.892907250012246e-01
	0.000000000000000e+00
	3.751982042144671e-19
	1.875991021058265e-19
	1.999999999278569e-01
	1.875991021058265e-19
	0.000000000000000e+00
	2.000000000000000e-01
	2.000000000000000e-01
	0.000000000000000e+00
	-1.000528545320433e-19
	1.893757314813868e-12
	3.968324062732252e-02
	0.000000000000000e+00
	0.000000000000000e+00
	-3.787513705444390e-12
	0.000000000000000e+00
	3.892907250012246e-01
	0.000000000000000e+00

 28	5.000000000000000e-02
	1.949296566960538e-15
	-1.240970349521606e-18
	7.475765025826852e-20
	-4.145561681871469e-18
	5.311774381134807e-18
	-1.946351388206902e-15
	4.686949908158833e-19
	1.960953411826139e-15
	-1.507071861005266e-17
	-1.704208404114706e-18
	-2.604823360949484e-19
	-5.695772558321715e-18
	7.660463298531305e-18
	1.994165794029007e-05
	7.122914494086938e-05
	2.008105212707146e-05
	2.874968087166672e-06
	1.104154097056046e-13
	5.000000000000002e-02
	3.971758959638588e-02
	1.999999999478236e-01
	3.858784417374297e-01
	0.000000000000000e+00
	1.104154097056046e-13
	4.943560983312614e-13
	1.999999999478236e-01
	5.520770485237065e-14
	0.000000000000000e+00
	2.000000000000000e-01
	2.000000000000000e-01
	5.000000000000000e-02
	-5.872066888602765e-14
	-2.874967300372299e-06
	3.971758959638588e-02
	0.000000000000000e+00
	0.000000000000000e+00
	-2.739263676998505e-12
	0.000000000000000e+00
	3.858784417374297e-01
	0.000000000000000e+00

 29	1.000000000000000e-01
	1.949238841791994e-15
	-1.282430494392198e-18
	-1.995109968013351e-19
	-4.293280349867076e-18
	5.775221841060609e-18
	-1.946100975712024e-15
	6.565907789577135e-19
	1.961827929725293e-15
	-1.638354479222610e-17
	-1.855435585577394e-18
	-3.941948254291128e-19
	-6.212929210621623e-18
	8.462559621628337e-18
	8.801103282632063e-06
	8.605939638931158e-05
	2.420536459473921e-05
	3.481183988067177e-06
	2.080713646327355e-13
	1.000000000000000e-01
	3.975615152284631e-02
	1.999999999582258e-01
	3.824661755431968e-01
	0.000000000000000e+00
	2.080713646327355e-13
	9.274655830779843e-13
	1.999999999582258e-01
	1.040356823155543e-13
	0.000000000000000e+00
	2.000000000000000e-01
	2.000000000000000e-01
	1.000000000000000e-01
	-1.103810240767403e-13
	-3.481183799046698e-06
	3.975615152284631e-02
	0.000000000000000e+00
	0.000000000000000e+00
	-2.193148440632342e-12
	0.000000000000000e+00
	3.824661755431968e-01
	0.000000000000000e+00

 30	1.500000000000000e-01
	1.949229450700596e-15
	-1.389490782275959e-18
	-2.786320581953676e-19
	-4.660592501273897e-18