Title: transistors characterization nmos transistor simulation testbench
Date: Wed Jul 22 15:51:44  2020
Plotname: DC transfer characteristic
Flags: real
No. Variables: 21
No. Points: 351
Variables:
	0	nd	voltage
	1	@m1[vdsat]	voltage
	2	@m1[vth]	voltage
	3	index	notype dims=1
	4	m1#body	voltage
	5	m1#dbody	voltage
	6	m1#gate	voltage
	7	m1#sbody	voltage
	8	nb	voltage
	9	ng	voltage
	10	ngvec	voltage dims=13,27
	11	v-sweep	voltage
	12	i(vbs)	current
	13	i(vds)	current
	14	vdsat	voltage dims=13,27
	15	vdsat_point	voltage dims=1
	16	veff_point	notype dims=1
	17	i(vgs)	current
	18	vgs_point	voltage dims=1
	19	vth	voltage dims=13,27
	20	vth_point	voltage dims=1
Values:
 0	0.000000000000000e+00
	3.911865668972766e-02
	3.892907250012246e-01
	1.300000000000000e+01
	1.155870206706696e-19
	5.779351033490137e-20
	9.999999998863326e-02
	5.779351033490136e-20
	0.000000000000000e+00
	1.000000000000000e-01
	1.000000000000000e-01
	0.000000000000000e+00
	-3.082320553523818e-20
	2.983776414820847e-13
	3.911865668972766e-02
	4.324996023000938e-01
	9.994232996081043e-01
	-5.967544167151395e-13
	1.300000000000000e+00
	3.892907250012246e-01
	3.005767003918957e-01

 1	5.000000000000000e-02
	3.910469275115994e-02
	3.858784417374298e-01
	0.000000000000000e+00
	1.098342848531914e-13
	4.940655359050570e-13
	9.999999999317168e-02
	5.491714242616631e-14
	0.000000000000000e+00
	1.000000000000000e-01
	1.000000000000000e-01
	5.000000000000000e-02
	-5.856570225860153e-14
	-2.125779461490770e-07
	3.910469275115994e-02
	0.000000000000000e+00
	0.000000000000000e+00
	-3.584875452045111e-13
	0.000000000000000e+00
	3.858784417374298e-01
	0.000000000000000e+00

 2	1.000000000000000e-01
	3.909113746799294e-02
	3.824661755431978e-01
	0.000000000000000e+00
	2.060235175909876e-13
	9.264416595571182e-13
	9.999999999431644e-02
	1.030117587946883e-13
	0.000000000000000e+00
	1.000000000000000e-01
	1.000000000000000e-01
	1.000000000000000e-01
	-1.098349315318656e-13
	-2.588181794762422e-07
	3.909113746799294e-02
	0.000000000000000e+00
	0.000000000000000e+00
	-2.983871830175566e-13
	0.000000000000000e+00
	3.824661755431978e-01
	0.000000000000000e+00

 3	1.500000000000000e-01
	3.907802815132259e-02
	3.790539263366999e-01
	0.000000000000000e+00
	3.002661875285695e-13
	1.349905917492958e-12
	9.999999999546121e-02
	1.501330937631109e-13
	0.000000000000000e+00
	1.000000000000000e-01
	1.000000000000000e-01
	1.500000000000000e-01
	-1.600558384361490e-13
	-2.916018067935741e-07
	3.907802815132259e-02
	0.000000000000000e+00
	0.000000000000000e+00
	-2.382868208306022e-13
	0.000000000000000e+00
	3.790539263366999e-01
	0.000000000000000e+00

 4	2.000000000000000e-01
	3.906540525335880e-02
	3.756416940364822e-01
	0.000000000000000e+00
	3.942561956154224e-13
	1.772095225995731e-12
	9.999999999999963e-02
	1.971280978061699e-13
	0.000000000000000e+00
	1.000000000000000e-01
	1.000000000000000e-01
	2.000000000000000e-01
	-2.101327942795592e-13
	-3.246882114513382e-07
	3.906540525335880e-02
	0.000000000000000e+00
	0.000000000000000e+00
	-1.994931997373328e-17
	0.000000000000000e+00
	3.756416940364822e-01
	0.000000000000000e+00

 5	2.500000000000000e-01
	3.905331261175363e-02
	3.722294785614667e-01
	0.000000000000000e+00
	4.882424167978342e-13
	2.194116449641910e-12
	1.000000000104017e-01
	2.441212083970083e-13
	0.000000000000000e+00
	1.000000000000000e-01
	1.000000000000000e-01
	2.500000000000000e-01
	-2.601976608548095e-13
	-3.601256673475676e-07
	3.905331261175363e-02
	0.000000000000000e+00
	0.000000000000000e+00
	5.460892155140229e-13
	0.000000000000000e+00
	3.722294785614667e-01
	0.000000000000000e+00

 6	3.000000000000000e-01
	3.904179770966528e-02
	3.688172798309466e-01
	0.000000000000000e+00
	5.822653184609589e-13
	2.616131967613547e-12
	1.000000000303679e-01
	2.911326592282031e-13
	0.000000000000000e+00
	1.000000000000000e-01
	1.000000000000000e-01
	3.000000000000000e-01
	-3.102707058305947e-13
	-3.986802161128224e-07
	3.904179770966528e-02
	0.000000000000000e+00
	0.000000000000000e+00
	1.594316692554720e-12
	0.000000000000000e+00
	3.688172798309466e-01
	0.000000000000000e+00

 7	3.500000000000000e-01
	3.903091195210916e-02
	3.654050977645926e-01
	0.000000000000000e+00
	6.763359390269329e-13
	3.038167865879394e-12
	1.000000000653845e-01
	3.381679695108223e-13
	0.000000000000000e+00
	1.000000000000000e-01
	1.000000000000000e-01
	3.500000000000000e-01
	-3.603562439033348e-13
	-4.408602533965202e-07
	3.903091195210916e-02
	0.000000000000000e+00
	0.000000000000000e+00
	3.432684692050714e-12
	0.000000000000000e+00
	3.654050977645926e-01
	0.000000000000000e+00

 8	4.000000000000000e-01
	3.902071095910524e-02
	3.619929322824394e-01
	0.000000000000000e+00
	7.704617866968800e-13
	3.460230874304657e-12
	1.000000001234713e-01
	3.852308933454279e-13
	0.000000000000000e+00
	1.000000000000000e-01
	1.000000000000000e-01
	4.000000000000000e-01
	-4.104564756443074e-13
	-4.871143096898535e-07
	3.902071095910524e-02
	0.000000000000000e+00
	0.000000000000000e+00
	6.482245296091094e-12
	0.000000000000000e+00
	3.619929322824394e-01
	0.000000000000000e+00

 9	4.500000000000000e-01
	3.901125487606859e-02
	3.585807833048912e-01
	0.000000000000000e+00
	8.646506320927100e-13
	3.882325308757958e-12
	1.000000002162180e-01
	4.323253160429747e-13
	0.000000000000000e+00
	1.000000000000000e-01
	1.000000000000000e-01
	4.500000000000000e-01
	-4.605735019232009e-13
	-5.378886077262672e-07
	3.901125487606859e-02
	0.000000000000000e+00
	0.000000000000000e+00
	1.135144235553387e-11
	0.000000000000000e+00
	3.585807833048912e-01
	0.000000000000000e+00

 10	4.999999999999999e-01
	3.900260870181505e-02
	3.551686507527205e-01
	0.000000000000000e+00
	9.589111266392034e-13
	4.304455557248248e-12
	1.000000003602100e-01
	4.794555633158528e-13
	0.000000000000000e+00
	1.000000000000000e-01
	1.000000000000000e-01
	4.999999999999999e-01
	-5.107096339397296e-13
	-5.936495683801639e-07
	3.900260870181505e-02
	0.000000000000000e+00
	0.000000000000000e+00
	1.891102378859255e-11
	0.000000000000000e+00
	3.551686507527205e-01
	0.000000000000000e+00

 11	5.499999999999999e-01
	3.899484263446121e-02
	3.517565345470658e-01
	0.000000000000000e+00
	1.053252976859523e-12
	4.726626482050679e-12
	1.000000005789879e-01
	5.266264884256438e-13
	0.000000000000000e+00
	1.000000000000000e-01
	1.000000000000000e-01
	5.499999999999999e-01
	-5.608674607009766e-13
	-6.548952140612165e-07
	3.899484263446121e-02
	0.000000000000000e+00
	0.000000000000000e+00
	3.039686384542772e-11
	0.000000000000000e+00
	3.517565345470658e-01
	0.000000000000000e+00

 12	6.000000000000000e-01
	3.898803243538964e-02
	3.483444346094257e-01
	0.000000000000000e+00
	1.147687066419337e-12
	5.148843526302239e-12
	1.000000009057249e-01
	5.738435332051819e-13
	0.000000000000000e+00
	1.000000000000000e-01
	1.000000000000000e-01
	6.000000000000000e-01
	-6.110498846047330e-13
	-7.221625085626761e-07
	3.898803243538964e-02
	0.000000000000000e+00
	0.000000000000000e+00
	4.755055810906628e-11
	0.000000000000000e+00
	3.483444346094257e-01
	0.000000000000000e+00

 13	6.500000000000000e-01
	3.898225981132405e-02
	3.449323508616643e-01
	0.000000000000000e+00
	1.242225581719469e-12
	5.571112783392038e-12
	1.000000013868780e-01
	6.211127908548782e-13
	0.000000000000000e+00
	1.000000000000000e-01
	1.000000000000000e-01
	6.500000000000000e-01
	-6.612601553704667e-13
	-7.960331151314283e-07
	3.898225981132405e-02
	0.000000000000000e+00
	0.000000000000000e+00
	7.281109569434729e-11
	0.000000000000000e+00
	3.449323508616643e-01
	0.000000000000000e+00

 14	7.000000000000001e-01
	3.897761281441184e-02
	3.415202832260063e-01
	0.000000000000000e+00
	1.336882149148336e-12
	5.993441066541586e-12
	1.000000020871495e-01
	6.684410745689417e-13
	0.000000000000000e+00
	1.000000000000000e-01
	1.000000000000000e-01
	7.000000000000001e-01
	-7.115019067035789e-13
	-8.771385838043027e-07
	3.897761281441184e-02
	0.000000000000000e+00
	0.000000000000000e+00
	1.095753470597982e-10
	0.000000000000000e+00
	3.415202832260063e-01
	0.000000000000000e+00

 15	7.500000000000001e-01
	3.897418626004218e-02
	3.381082316250338e-01
	0.000000000000000e+00
	1.431671985623906e-12
	6.415835984213816e-12
	1.000000030962118e-01
	7.158359928063558e-13
	0.000000000000000e+00
	1.000000000000000e-01
	1.000000000000000e-01
	7.500000000000001e-01
	-7.617791964491270e-13
	-9.661654389840832e-07
	3.897418626004218e-02
	0.000000000000000e+00
	0.000000000000000e+00
	1.625511183989126e-10
	0.000000000000000e+00
	3.381082316250338e-01
	0.000000000000000e+00

 16	8.000000000000002e-01
	3.897208216194059e-02
	3.346961959816852e-01
	0.000000000000000e+00
	1.526612063329993e-12
	6.838306022501209e-12
	1.000000045377999e-01
	7.633060316590283e-13
	0.000000000000000e+00
	1.000000000000000e-01
	1.000000000000000e-01
	8.000000000000002e-01
	-8.120965505228369e-13
	-1.063860422640032e-06
	3.897208216194059e-02
	0.000000000000000e+00
	0.000000000000000e+00
	2.382344928969493e-10
	0.000000000000000e+00
	3.346961959816852e-01
	0.000000000000000e+00

 17	8.500000000000002e-01
	3.897141018386648e-02
	3.312841762192612e-01
	0.000000000000000e+00
	1.621721289571739e-12
	7.260860635056415e-12
	1.000000065819751e-01
	8.108606447795297e-13
	0.000000000000000e+00
	1.000000000000000e-01
	1.000000000000000e-01
	8.500000000000002e-01
	-8.624590108727551e-13
	-1.171036060949848e-06
	3.897141018386648e-02
	0.000000000000000e+00
	0.000000000000000e+00
	3.455536898289147e-10
	0.000000000000000e+00
	3.312841762192612e-01
	0.000000000000000e+00

 18	9.000000000000002e-01
	3.897228810700339e-02
	3.278721722614111e-01
	0.000000000000000e+00
	1.717020702762424e-12
	7.683510341086089e-12
	1.000000094616322e-01
	8.585103513744996e-13
	0.000000000000000e+00
	1.000000000000000e-01
	1.000000000000000e-01
	9.000000000000002e-01
	-9.128721877424283e-13
	-1.288576691610215e-06
	3.897228810700339e-02
	0.000000000000000e+00
	0.000000000000000e+00
	4.967356925095201e-10
	0.000000000000000e+00
	3.278721722614111e-01
	0.000000000000000e+00

 19	9.500000000000003e-01
	3.897484231187782e-02
	3.244601840321318e-01
	0.000000000000000e+00
	1.837105294899136e-12
	8.118552636588682e-12
	1.000000134946737e-01
	9.185526474423861e-13
	0.000000000000000e+00
	1.000000000000000e-01
	1.000000000000000e-01
	9.500000000000003e-01
	-9.698947456693195e-13
	-1.417445094128662e-06
	3.897484231187782e-02
	0.000000000000000e+00
	0.000000000000000e+00
	7.084703709109297e-10
	0.000000000000000e+00
	3.244601840321318e-01
	0.000000000000000e+00

 20	1.000000000000000e+00
	3.897920827335825e-02
	3.210482114557404e-01
	0.000000000000000e+00
	2.131889516399595e-12
	8.640944746772493e-12
	1.000000191137404e-01
	1.065944758191463e-12
	0.000000000000000e+00
	1.000000000000000e-01
	1.000000000000000e-01
	1.000000000000000e+00
	-1.073503871461394e-12
	-1.558689888981853e-06
	3.897920827335825e-02
	0.000000000000000e+00
	0.000000000000000e+00
	1.003471368499209e-09
	0.000000000000000e+00
	3.210482114557404e-01
	0.000000000000000e+00

 21	1.050000000000000e+00
	3.898553106698931e-02
	3.176362544567681e-01
	0.000000000000000e+00
	3.274182509673304e-12
	9.587091242839751e-12
	1.000000269060056e-01
	1.637091254823852e-12
	0.000000000000000e+00
	1.000000000000000e-01
	1.000000000000000e-01
	1.050000000000000e+00
	-1.403115336562071e-12
	-1.713453946670850e-06
	3.898553106698931e-02
	0.000000000000000e+00
	0.000000000000000e+00
	1.412565293033852e-09
	0.000000000000000e+00
	3.176362544567681e-01
	0.000000000000000e+00

 22	1.100000000000000e+00
	3.899396588460143e-02
	3.142243129595345e-01
	0.000000000000000e+00
	8.076841035258225e-12
	1.236342050504889e-11
	1.000000376663528e-01
	4.038420517597536e-12
	0.000000000000000e+00
	1.000000000000000e-01
	1.000000000000000e-01
	1.100000000000000e+00
	-2.708824277675942e-12
	-1.882984278210177e-06
	3.899396588460143e-02
	0.000000000000000e+00
	0.000000000000000e+00
	1.977483524151502e-09
	0.000000000000000e+00
	3.142243129595345e-01
	0.000000000000000e+00

 23	1.150000000000000e+00
	3.900467855680884e-02
	3.108123868867614e-01
	0.000000000000000e+00
	2.675100747969537e-11
	2.207550372663212e-11
	1.000000524683284e-01
	1.337550373974310e-11
	0.000000000000000e+00
	1.000000000000000e-01
	1.000000000000000e-01
	1.150000000000000e+00
	-7.713601999917625e-12
	-2.068644336574985e-06
	3.900467855680884e-02
	0.000000000000000e+00
	0.000000000000000e+00
	2.754587242331796e-09
	0.000000000000000e+00
	3.108123868867614e-01
	0.000000000000000e+00

 24	1.200000000000000e+00
	3.901784607968938e-02
	3.074004761555444e-01
	0.000000000000000e+00
	9.234946177883475e-11
	5.524973087539050e-11
	1.000000727586760e-01
	4.617473088905634e-11
	0.000000000000000e+00
	1.000000000000000e-01
	1.000000000000000e-01
	1.200000000000000e+00
	-2.523152315944080e-11
	-2.271930834968917e-06
	3.901784607968938e-02
	0.000000000000000e+00
	0.000000000000000e+00
	3.819830491844090e-09
	0.000000000000000e+00
	3.074004761555444e-01
	0.000000000000000e+00

 25	1.250000000000000e+00
	3.903365714262716e-02
	3.039885806666122e-01
	0.000000000000000e+00
	3.016880694119958e-10
	1.602940346906207e-10
	1.000001004831204e-01
	1.508440347048184e-10
	0.000000000000000e+00
	1.000000000000000e-01
	1.000000000000000e-01
	1.250000000000000e+00
	-8.108015190337771e-11
	-2.494499621968902e-06
	3.903365714262716e-02
	0.000000000000000e+00
	0.000000000000000e+00
	5.275363821992396e-09
	0.000000000000000e+00
	3.039885806666122e-01
	0.000000000000000e+00

 26	1.300000000000000e+00
	3.905231265404997e-02
	3.005767002783434e-01
	0.000000000000000e+00
	9.145876074279603e-10
	4.671188036957392e-10
	1.000001382535164e-01
	4.572938037104046e-10
	0.000000000000000e+00
	1.000000000000000e-01
	1.000000000000000e-01
	1.300000000000000e+00
	-2.445450288299017e-10
	-2.738209966217476e-06
	3.905231265404997e-02
	0.000000000000000e+00
	0.000000000000000e+00
	7.258309613067393e-09
	0.000000000000000e+00
	3.005767002783434e-01
	0.000000000000000e+00

 27	0.000000000000000e+00
	3.968324062732252e-02
	3.892907250012246e-01
	0.000000000000000e+00
	3.751982042144671e-19
	1.875991021058265e-19
	1.999999999278569e-01
	1.875991021058265e-19
	0.000000000000000e+00
	2.000000000000000e-01
	2.000000000000000e-01
	0.000000000000000e+00
	-1.000528545320433e-19
	1.893757314813868e-12
	3.968324062732252e-02
	0.000000000000000e+00
	0.000000000000000e+00
	-3.787513705444390e-12
	0.000000000000000e+00
	3.892907250012246e-01
	0.000000000000000e+00

 28	5.000000000000000e-02
	3.971758959638588e-02
	3.858784417374297e-01
	0.000000000000000e+00
	1.104154097056046e-13
	4.943560983312614e-13
	1.999999999478236e-01
	5.520770485237065e-14
	0.000000000000000e+00
	2.000000000000000e-01
	2.000000000000000e-01
	5.000000000000000e-02
	-5.872066888602765e-14
	-2.874967300372299e-06
	3.971758959638588e-02
	0.000000000000000e+00
	0.000000000000000e+00
	-2.739263676998505e-12
	0.000000000000000e+00
	3.858784417374297e-01
	0.000000000000000e+00

 29	1.000000000000000e-01
	3.975615152284631e-02
	3.824661755431968e-01
	0.000000000000000e+00
	2.080713646327355e-13
	9.274655830779843e-13
	1.999999999582258e-01
	1.040356823155543e-13
	0.000000000000000e+00
	2.000000000000000e-01
	2.000000000000000e-01
	1.000000000000000e-01
	-1.103810240767403e-13
	-3.481183799046698e-06
	3.975615152284631e-02
	0.000000000000000e+00
	0.000000000000000e+00
	-2.193148440632342e-12
	0.000000000000000e+00
	3.824661755431968e-01
	0.000000000000000e+00

 30	1.500000000000000e-01
	3.979922224757293e-02
	3.790539263366982e-01
	0.000000000000000e+00
	3.042298969504068e-13
	1.351887772203862e-12
	1.999999999627642e-01
	1.521149484740140e-13
	0.000000000000000e+00
	2.000000000000000e-01
	2.000000000000000e-01
	1.500000000000000e-01
	-1.611128276160963e-13
	-3.893313565269334e-06
	3.979922224757293e-02
	0.000000000000000e+00
	0.000000000000000e+00
	-1.954878967036500e-12
	0.000000000000000e+00
	3.790539263366982e-01
	0.000000000000000e+00

 31	2.000000000000000e-01
	3.984711341972454e-02
	3.756416940364803e-01
	0.000000000000000e+00
	4.005249937151377e-13
	1.775229625045565e-12
	1.999999999639090e-01
	2.002624968560030e-13
	0.000000000000000e+00
	2.000000000000000e-01
	2.000000000000000e-01
	2.000000000000000e-01
	-2.118044737740671e-13
	-4.301315069845378e-06
	3.984711341972454e-02
	0.000000000000000e+00
	0.000000000000000e+00
	-1.894781206934759e-12
	0.000000000000000e+00
	3.756416940364803e-01
	0.000000000000000e+00

 32	2.500000000000000e-01
	3.990015278620496e-02
	3.722294785614629e-01
	0.000000000000000e+00
	4.972323454229616e-13
	2.198611413954440e-12
	1.999999999650537e-01
	2.486161727095369e-13
	0.000000000000000e+00
	2.000000000000000e-01
	2.000000000000000e-01
	2.500000000000000e-01
	-2.625949751566368e-13
	-4.732301412076170e-06
	3.990015278620496e-02
	0.000000000000000e+00
	0.000000000000000e+00
	-1.834679977386067e-12
	0.000000000000000e+00
	3.722294785614629e-01
	0.000000000000000e+00

 33	3.000000000000000e-01
	3.995868441904243e-02
	3.688172798309447e-01
	0.000000000000000e+00
	5.944378439485312e-13
	2.622218230357287e-12
	1.999999999695921e-01
	2.972189219719417e-13
	0.000000000000000e+00
	2.000000000000000e-01
	2.000000000000000e-01
	3.000000000000000e-01
	-3.135167126297090e-13
	-5.195402600298271e-06
	3.995868441904243e-02
	0.000000000000000e+00
	0.000000000000000e+00
	-1.596413973237176e-12
	0.000000000000000e+00
	3.688172798309447e-01
	0.000000000000000e+00

 34	3.500000000000000e-01
	4.002306887251839e-02
	3.654050977645879e-01
	0.000000000000000e+00
	6.922069400171349e-13
	3.046103366374436e-12
	1.999999999799942e-01
	3.461034700058613e-13
	0.000000000000000e+00
	2.000000000000000e-01
	2.000000000000000e-01
	3.500000000000000e-01
	-3.645885108372215e-13
	-5.695983641876889e-06
	4.002306887251839e-02
	0.000000000000000e+00
	0.000000000000000e+00
	-1.050303941041442e-12
	0.000000000000000e+00
	3.654050977645879e-01
	0.000000000000000e+00

 35	4.000000000000000e-01
	4.009368326172572e-02
	3.619929322824338e-01
	0.000000000000000e+00
	7.906086898148311e-13
	3.470304325863557e-12
	1.999999999999605e-01
	3.953043449043247e-13
	0.000000000000000e+00
	2.000000000000000e-01
	2.000000000000000e-01
	4.000000000000000e-01
	-4.158289831464467e-13
	-6.238363295218812e-06
	4.009368326172572e-02
	0.000000000000000e+00
	0.000000000000000e+00
	-2.076464000744238e-15
	0.000000000000000e+00
	3.619929322824338e-01
	0.000000000000000e+00

 36	4.500000000000000e-01
	4.017092125395787e-02
	3.585807833048846e-01
	0.000000000000000e+00
	8.897193096911106e-13
	3.894859647557065e-12
	2.000000000349769e-01
	4.448596548420769e-13
	0.000000000000000e+00
	2.000000000000000e-01
	2.000000000000000e-01
	4.500000000000000e-01
	-4.672584826211087e-13
	-6.826585347926050e-06
	4.017092125395787e-02
	0.000000000000000e+00
	0.000000000000000e+00
	1.836288066048297e-12
	0.000000000000000e+00
	3.585807833048846e-01
	0.000000000000000e+00

 37	4.999999999999999e-01
	4.025519296447189e-02
	3.551686507527131e-01
	0.000000000000000e+00
	9.896230326490364e-13
	4.319811510253050e-12
	2.000000000930638e-01
	4.948115163206493e-13
	0.000000000000000e+00
	2.000000000000000e-01
	2.000000000000000e-01
	4.999999999999999e-01
	-5.188994755484784e-13
	-7.464701960656774e-06
	4.025519296447189e-02
	0.000000000000000e+00
	0.000000000000000e+00
	4.885848670088677e-12
	0.000000000000000e+00
	3.551686507527131e-01
	0.000000000000000e+00

 38	5.499999999999999e-01
	4.034692474824981e-02
	3.517565345470556e-01
	0.000000000000000e+00
	1.090412706681756e-12
	4.745206346961656e-12
	2.000000001858104e-01
	5.452063533366149e-13
	0.000000000000000e+00
	2.000000000000000e-01
	2.000000000000000e-01
	5.499999999999999e-01
	-5.707767219943183e-13
	-8.156900585411297e-06
	4.034692474824981e-02
	0.000000000000000e+00
	0.000000000000000e+00
	9.755043994807977e-12
	0.000000000000000e+00
	3.517565345470556e-01
	0.000000000000000e+00

 39	6.000000000000000e-01
	4.044655887963081e-02
	3.483444346094136e-01
	0.000000000000000e+00
	1.192190434882100e-12
	5.171095210533454e-12
	2.000000003298024e-01
	5.960952174363893e-13
	0.000000000000000e+00
	2.000000000000000e-01
	2.000000000000000e-01
	6.000000000000000e-01
	-6.229174495370144e-13
	-8.907571530525500e-06
	4.044655887963081e-02
	0.000000000000000e+00
	0.000000000000000e+00
	1.731462369314318e-11
	0.000000000000000e+00
	3.483444346094136e-01
	0.000000000000000e+00

 40	6.500000000000000e-01
	4.055455311206502e-02
	3.449323508616512e-01
	0.000000000000000e+00
	1.295068279059379e-12
	5.597534132061795e-12
	2.000000005485803e-01
	6.475341395246263e-13
	0.000000000000000e+00
	2.000000000000000e-01
	2.000000000000000e-01
	6.500000000000000e-01
	-6.753515413383174e-13
	-9.721350103206185e-06
	4.055455311206502e-02
	0.000000000000000e+00
	0.000000000000000e+00
	2.880046374997836e-11
	0.000000000000000e+00
	3.449323508616512e-01
	0.000000000000000e+00

 41	7.000000000000001e-01
	4.067138011076838e-02
	3.415202832259896e-01
	0.000000000000000e+00
	1.399169020650749e-12
	6.024584502292559e-12
	2.000000008753173e-01
	6.995845103199042e-13
	0.000000000000000e+00
	2.000000000000000e-01
	2.000000000000000e-01
	7.000000000000001e-01
	-7.281117391166478e-13
	-1.060314684752887e-05
	4.067138011076838e-02
	0.000000000000000e+00
	0.000000000000000e+00
	4.595415541153169e-11
	0.000000000000000e+00
	3.415202832259896e-01
	0.000000000000000e+00

 42	7.500000000000001e-01
	4.079752675173967e-02
	3.381082316250132e-01
	0.000000000000000e+00
	1.504626973730720e-12
	6.452313478266949e-12
	2.000000013564704e-01
	7.523134868594776e-13
	0.000000000000000e+00
	2.000000000000000e-01
	2.000000000000000e-01
	7.500000000000001e-01
	-7.812338599588312e-13
	-1.155817183669485e-05
	4.079752675173967e-02
	0.000000000000000e+00
	0.000000000000000e+00
	7.121469386417445e-11
	0.000000000000000e+00
	3.381082316250132e-01
	0.000000000000000e+00

 43	8.000000000000002e-01
	4.093349328144801e-02
	3.346961959816629e-01
	0.000000000000000e+00
	1.611588847198464e-12
	6.880794414435125e-12
	2.000000020567418e-01
	8.057944235929315e-13
	0.000000000000000e+00
	2.000000000000000e-01
	2.000000000000000e-01
	8.000000000000002e-01
	-8.347570262380476e-13
	-1.259195587503147e-05
	4.093349328144801e-02
	0.000000000000000e+00
	0.000000000000000e+00
	1.079789417601784e-10
	0.000000000000000e+00
	3.346961959816629e-01
	0.000000000000000e+00

 44	8.500000000000002e-01
	4.107979233250898e-02
	3.312841762192352e-01
	0.000000000000000e+00
	1.720214654391654e-12
	7.310107317466003e-12
	2.000000030658040e-01
	8.601073271891018e-13
	0.000000000000000e+00
	2.000000000000000e-01
	2.000000000000000e-01
	8.500000000000002e-01
	-8.887239081777140e-13
	-1.371037009067083e-05
	4.107979233250898e-02
	0.000000000000000e+00
	0.000000000000000e+00
	1.609547113645693e-10
	0.000000000000000e+00
	3.312841762192352e-01
	0.000000000000000e+00

 45	9.000000000000002e-01
	4.123694779185199e-02
	3.278721722613812e-01
	0.000000000000000e+00
	1.830678668758497e-12
	7.740339324083697e-12
	2.000000045073921e-01
	9.153393343720915e-13
	0.000000000000000e+00
	2.000000000000000e-01
	2.000000000000000e-01
	9.000000000000002e-01
	-9.431809786973877e-13
	-1.491964475963057e-05
	4.123694779185199e-02
	0.000000000000000e+00
	0.000000000000000e+00
	2.366380841278826e-10
	0.000000000000000e+00
	3.278721722613812e-01
	0.000000000000000e+00

 46	9.500000000000003e-01
	4.140549351923477e-02
	3.244601840320387e-01
	0.000000000000000e+00
	2.188529305160798e-12
	8.294264641718194e-12
	2.000000065515673e-01
	1.094264652571843e-12
	0.000000000000000e+00
	2.000000000000000e-01
	2.000000000000000e-01
	9.500000000000003e-01
	-1.063607815142535e-12
	-1.622638796172844e-05
	4.140549351923477e-02
	0.000000000000000e+00
	0.000000000000000e+00
	3.439572810598479e-10
	0.000000000000000e+00
	3.244601840320387e-01
	0.000000000000000e+00

 47	1.000000000000000e+00
	4.158597191549053e-02
	3.210482114551560e-01
	0.000000000000000e+00
	4.366417633559310e-12
	9.758208805343970e-12
	2.000000094312244e-01
	2.183208816762585e-12
	0.000000000000000e+00
	2.000000000000000e-01
	2.000000000000000e-01
	1.000000000000000e+00
	-1.669378036483082e-12
	-1.763760461457761e-05
	4.158597191549053e-02
	0.000000000000000e+00
	0.000000000000000e+00
	4.951392802710064e-10
	0.000000000000000e+00
	3.210482114551560e-01
	0.000000000000000e+00

 48	1.050000000000000e+00
	4.177893234160368e-02
	3.176362544536375e-01
	0.000000000000000e+00
	1.522637357333222e-11
	1.556318677462439e-11
	2.000000134642658e-01
	7.613186786606582e-12
	0.000000000000000e+00
	2.000000000000000e-01
	2.000000000000000e-01
	1.050000000000000e+00
	-4.590366289255450e-12
	-1.916071675113261e-05
	4.177893234160368e-02
	0.000000000000000e+00
	0.000000000000000e+00
	7.068739552029690e-10
	0.000000000000000e+00
	3.176362544536375e-01
	0.000000000000000e+00

 49	1.100000000000000e+00
	4.198492939168626e-02
	3.142243129451016e-01
	0.000000000000000e+00
	6.317442461707126e-11
	3.991221229574879e-11
	2.000000190833325e-01
	3.158721230828865e-11
	0.000000000000000e+00
	2.000000000000000e-01
	2.000000000000000e-01
	1.100000000000000e+00
	-1.740151324381747e-11
	-2.080358784249479e-05
	4.198492939168626e-02
	0.000000000000000e+00
	0.000000000000000e+00
	1.001874952791248e-09
	0.000000000000000e+00
	3.142243129451016e-01
	0.000000000000000e+00

 50	1.150000000000000e+00
	4.220452102523834e-02
	3.108123868282737e-01
	0.000000000000000e+00
	2.500415200349524e-10
	1.337207600034233e-10
	2.000000268755976e-01
	1.250207600164987e-10
	0.000000000000000e+00
	2.000000000000000e-01
	2.000000000000000e-01
	1.150000000000000e+00
	-6.725773872586358e-11
	-2.257455767485657e-05
	4.220452102523834e-02
	0.000000000000000e+00
	0.000000000000000e+00
	1.410968871254359e-09
	0.000000000000000e+00
	3.108123868282737e-01
	0.000000000000000e+00

 51	1.200000000000000e+00
	4.243826656713050e-02
	3.074004759437040e-01
	0.000000000000000e+00
	9.010884741046728e-10
	4.596192370352768e-10
	2.000000376359448e-01
	4.505442370488136e-10
	0.000000000000000e+00
	2.000000000000000e-01
	2.000000000000000e-01
	1.200000000000000e+00
	-2.408952599409991e-10
	-2.448250474807219e-05
	4.243826656713050e-02
	0.000000000000000e+00
	0.000000000000000e+00
	1.975887098035201e-09
	0.000000000000000e+00
	3.074004759437040e-01
	0.000000000000000e+00

 52	1.250000000000000e+00
	4.268672458815316e-02
	3.039885799713996e-01
	0.000000000000000e+00
	2.955792285217298e-09
	1.487346142583319e-09
	2.000000524379203e-01
	1.477896142597093e-09
	0.000000000000000e+00
	2.000000000000000e-01
	2.000000000000000e-01
	1.250000000000000e+00
	-7.888412766475906e-10
	-2.653697458049332e-05
	4.268672458815316e-02
	0.000000000000000e+00
	0.000000000000000e+00
	2.752990816215495e-09
	0.000000000000000e+00
	3.039885799713996e-01
	0.000000000000000e+00

 53	1.300000000000000e+00
	4.295045068600525e-02
	3.005766981869949e-01
	0.000000000000000e+00
	8.898688389681909e-09
	4.459169194792773e-09
	2.000000727282679e-01
	4.449344194806165e-09
	0.000000000000000e+00
	2.000000000000000e-01
	2.000000000000000e-01
	1.300000000000000e+00
	-2.373638572357031e-09
	-2.874845415301723e-05
	4.295045068600525e-02
	0.000000000000000e+00
	0.000000000000000e+00
	3.818234063993065e-09
	0.000000000000000e+00
	3.005766981869949e-01
	0.000000000000000e+00

 54	0.000000000000000e+00
	4.460829329428428e-02
	3.892907250012246e-01
	0.000000000000000e+00
	1.010312493470208e-18
	5.051562467313154e-19
	2.999999997384799e-01
	5.051562467313154e-19
	0.000000000000000e+00
	3.000000000000000e-01
	3.000000000000000e-01
	0.000000000000000e+00
	-2.694166651269462e-19
	6.864901769187663e-12
	4.460829329428428e-02
	0.000000000000000e+00
	0.000000000000000e+00
	-1.372980548697278e-11
	0.000000000000000e+00
	3.892907250012246e-01
	0.000000000000000e+00

 55	5.000000000000000e-02
	4.495288463633430e-02
	3.858784417374280e-01
	0.000000000000000e+00
	1.152774044771294e-13
	4.967870957170045e-13
	2.999999997965988e-01
	5.763870223811402e-14
	0.000000000000000e+00
	3.000000000000000e-01
	3.000000000000000e-01
	5.000000000000000e-02
	-6.001720082607076e-14
	-2.824727117939965e-05
	4.495288463633430e-02
	0.000000000000000e+00
	0.000000000000000e+00
	-1.067856220116070e-11
	0.000000000000000e+00
	3.858784417374280e-01
	0.000000000000000e+00

 56	1.000000000000000e-01
	4.531602402006266e-02
	3.824661755431922e-01
	0.000000000000000e+00
	2.262366046087123e-13
	9.365482030659040e-13
	2.999999998316237e-01
	1.131183023034717e-13
	0.000000000000000e+00
	3.000000000000000e-01
	3.000000000000000e-01
	1.000000000000000e-01
	-1.152250880739578e-13
	-3.438309339812756e-05
	4.531602402006266e-02
	0.000000000000000e+00
	0.000000000000000e+00
	-8.839758786072238e-12
	0.000000000000000e+00
	3.824661755431922e-01
	0.000000000000000e+00

 57	1.500000000000000e-01
	4.569820594180292e-02
	3.790539263366888e-01
	0.000000000000000e+00
	3.399064099146248e-13
	1.369726028685836e-12
	2.999999998515872e-01
	1.699532049559835e-13
	0.000000000000000e+00
	3.000000000000000e-01
	3.000000000000000e-01
	1.500000000000000e-01
	-1.706265644136715e-13
	-3.806200584072443e-05
	4.569820594180292e-02
	0.000000000000000e+00
	0.000000000000000e+00
	-7.791673556356571e-12
	0.000000000000000e+00
	3.790539263366888e-01
	0.000000000000000e+00

 58	2.000000000000000e-01
	4.609990272847393e-02
	3.756416940364654e-01
	0.000000000000000e+00
	4.568968113618920e-13
	1.803415533868731e-12
	2.999999998619837e-01
	2.284484056791598e-13
	0.000000000000000e+00
	3.000000000000000e-01
	3.000000000000000e-01
	2.000000000000000e-01
	-2.268369584911139e-13
	-4.153087861873348e-05
	4.609990272847393e-02
	0.000000000000000e+00
	0.000000000000000e+00
	-7.245856692428276e-12
	0.000000000000000e+00
	3.756416940364654e-01
	0.000000000000000e+00

 59	2.500000000000000e-01
	4.652156185811036e-02
	3.722294785614415e-01
	0.000000000000000e+00
	5.775103001697474e-13
	2.238750391327532e-12
	2.999999998665152e-01
	2.887551500826159e-13
	0.000000000000000e+00
	3.000000000000000e-01
	3.000000000000000e-01
	2.500000000000000e-01
	-2.840024297717943e-13
	-4.509614672400245e-05
	4.652156185811036e-02
	0.000000000000000e+00
	0.000000000000000e+00
	-7.007953245485865e-12
	0.000000000000000e+00
	3.722294785614415e-01