Title: monte carlo simulation plot
Date: Sun May 21 17:41:29  2023
Plotname: monte_carlo
Flags: real
No. Variables: 101
No. Points: 27
Variables:
	0	voltage_sweep	voltage
	1	output_current_0	notype
	2	output_current_1	notype
	3	output_current_2	notype
	4	output_current_3	notype
	5	output_current_4	notype
	6	output_current_5	notype
	7	output_current_6	notype
	8	output_current_7	notype
	9	output_current_8	notype
	10	output_current_9	notype
	11	output_current_10	notype
	12	output_current_11	notype
	13	output_current_12	notype
	14	output_current_13	notype
	15	output_current_14	notype
	16	output_current_15	notype
	17	output_current_16	notype
	18	output_current_17	notype
	19	output_current_18	notype
	20	output_current_19	notype
	21	output_current_20	notype
	22	output_current_21	notype
	23	output_current_22	notype
	24	output_current_23	notype
	25	output_current_24	notype
	26	output_current_25	notype
	27	output_current_26	notype
	28	output_current_27	notype
	29	output_current_28	notype
	30	output_current_29	notype
	31	output_current_30	notype
	32	output_current_31	notype
	33	output_current_32	notype
	34	output_current_33	notype
	35	output_current_34	notype
	36	output_current_35	notype
	37	output_current_36	notype
	38	output_current_37	notype
	39	output_current_38	notype
	40	output_current_39	notype
	41	output_current_40	notype
	42	output_current_41	notype
	43	output_current_42	notype
	44	output_current_43	notype
	45	output_current_44	notype
	46	output_current_45	notype
	47	output_current_46	notype
	48	output_current_47	notype
	49	output_current_48	notype
	50	output_current_49	notype
	51	output_current_50	notype
	52	output_current_51	notype
	53	output_current_52	notype
	54	output_current_53	notype
	55	output_current_54	notype
	56	output_current_55	notype
	57	output_current_56	notype
	58	output_current_57	notype
	59	output_current_58	notype
	60	output_current_59	notype
	61	output_current_60	notype
	62	output_current_61	notype
	63	output_current_62	notype
	64	output_current_63	notype
	65	output_current_64	notype
	66	output_current_65	notype
	67	output_current_66	notype
	68	output_current_67	notype
	69	output_current_68	notype
	70	output_current_69	notype
	71	output_current_70	notype
	72	output_current_71	notype
	73	output_current_72	notype
	74	output_current_73	notype
	75	output_current_74	notype
	76	output_current_75	notype
	77	output_current_76	notype
	78	output_current_77	notype
	79	output_current_78	notype
	80	output_current_79	notype
	81	output_current_80	notype
	82	output_current_81	notype
	83	output_current_82	notype
	84	output_current_83	notype
	85	output_current_84	notype
	86	output_current_85	notype
	87	output_current_86	notype
	88	output_current_87	notype
	89	output_current_88	notype
	90	output_current_89	notype
	91	output_current_90	notype
	92	output_current_91	notype
	93	output_current_92	notype
	94	output_current_93	notype
	95	output_current_94	notype
	96	output_current_95	notype
	97	output_current_96	notype
	98	output_current_97	notype
	99	output_current_98	notype
	100	output_current_99	notype
Values:
 0	0.000000000000000e+00
	-1.031001018327970e-02
	-2.263448525480813e-03
	-1.097416662707400e-01
	-1.389172492841189e-02
	-1.895380484217014e-02
	-3.739611105607180e-03
	-1.223024759232522e-03
	-2.847099442079398e-03
	-1.841477182966470e-02
	-4.216496970042290e-03
	-2.008759175227512e-02
	-4.189202272375942e-03
	-7.417588849359220e-02
	-3.808318977520487e-02
	-7.781070988955310e-03
	-7.547258379198626e-02
	-3.864584817069591e-03
	-4.246761598924234e-03
	-1.192523344533867e-02
	-2.564039128398667e-03
	-1.088421447281973e-02
	-1.737394576397634e-02
	-5.051232147910884e-03
	-1.711539774267145e-02
	-1.810348504357701e-02
	-2.551704062583219e-03
	-7.764891871596805e-03
	-9.557995827170221e-03
	-5.821518688336068e-03
	-6.495283159509059e-03
	-2.339722798965700e-03
	-2.135172919820936e-03
	-1.620251301654854e-02
	-5.018980351394932e-03
	-1.599187807816330e-02
	-6.166157626904032e-03
	-4.536473244796395e-03
	-3.612154399495176e-02
	-1.429800496302955e-03
	-8.156444739316883e-03
	-1.070103724877751e-02
	-2.456785651128628e-02
	-1.757685176974164e-02
	-3.048492762954145e-02
	-4.031655571020471e-03
	-1.750224053152731e-02
	-3.694439793674238e-02
	-4.017640657301661e-02
	-1.358169567292462e-02
	-4.291560713827232e-02
	-8.108501779710099e-03
	-4.846745275472479e-03
	-6.088261012385669e-03
	-3.833039227613341e-02
	-1.175466449584317e-03
	-7.879627558441361e-03
	-1.191482714592383e-02
	-1.901570183343398e-02
	-8.151444440510429e-03
	-8.125018424238612e-03
	-8.405452007598171e-03
	-5.748859407670764e-03
	-1.828937973326626e-03
	-1.703780699306192e-02
	-2.224412230705981e-03
	-7.135390793089792e-02
	-5.542572441779589e-03
	-1.513257135560878e-02
	-5.518338700811364e-03
	-5.527859587584524e-03
	-1.250145852687929e-02
	-1.707555228120134e-02
	-1.764995691341610e-02
	-3.060657760735644e-02
	-2.347485784003853e-02
	-1.185440746158346e-03
	-7.966127709246684e-03
	-1.089556256696015e-02
	-9.139172932711806e-02
	-1.449478156255619e-02
	-1.372205686405278e-02
	-1.817883056341962e-02
	-1.237886376070112e-01
	-2.647951221660158e-02
	-5.888115800216583e-03
	-2.470205224516619e-03
	-1.166010313447946e-02
	-9.016077023663530e-02
	-1.420795009553865e-02
	-2.406618562801317e-02
	-1.480446502134687e-02
	-6.336389340189919e-02
	-1.452490013447558e-02
	-1.754259970259147e-02
	-4.061344845307274e-03
	-9.091104588302364e-03
	-2.231360966509147e-03
	-3.790781790564679e-02
	-1.512959580160537e-03
	-1.114546815404387e-02

 1	5.000000000000000e-02
	2.444474731926684e+01
	2.583380590975788e+01
	2.250219024645540e+01
	2.336258025000692e+01
	2.462461634266148e+01
	2.568036096194928e+01
	2.448961123950420e+01
	2.522240633953698e+01
	2.576364164220046e+01
	2.270583296377969e+01
	2.754900992743493e+01
	2.491218346986569e+01
	2.182781457485308e+01
	2.311444886552886e+01
	2.495448097388907e+01
	2.166478781190031e+01
	2.667886311333713e+01
	2.442082317355085e+01
	2.282322637724388e+01
	2.601928376864396e+01
	2.288036281478882e+01
	2.584555474722768e+01
	2.659995796380706e+01
	2.371354263395737e+01
	2.222759830085779e+01
	2.570970581896762e+01
	2.312815960953839e+01
	2.406229580761407e+01
	2.647098588515841e+01
	2.377425727897884e+01
	2.544952392852787e+01
	2.655503294063307e+01
	2.408672179785411e+01
	2.496513542428957e+01
	2.551256362752388e+01
	2.494600970390562e+01
	2.469976395661600e+01
	2.248228920820566e+01
	2.651879883830546e+01
	2.464855984034070e+01
	2.319067509656949e+01
	2.496378429635960e+01
	2.268255279732440e+01
	2.511283707249155e+01
	2.563361018270813e+01
	2.196471064899188e+01
	2.256476593915068e+01
	2.375355840207626e+01
	2.566498868433720e+01
	1.957802743015797e+01
	2.383185951673164e+01
	2.483339939881300e+01
	2.375020702351336e+01
	2.234337592007819e+01
	2.653418649212506e+01
	2.410828652551421e+01
	2.410051781683725e+01
	2.500934257551797e+01
	2.588864697692652e+01
	2.450813364589005e+01
	2.527312423653249e+01
	2.424317327520161e+01
	2.711334378117323e+01
	2.437985423761293e+01
	2.544527792712383e+01
	2.118241765888617e+01
	2.457197846177263e+01
	2.465554303537519e+01
	2.364867170159688e+01
	2.403433415838269e+01
	2.500228554355060e+01
	2.620322082388661e+01
	2.560632743823171e+01
	2.672407730793783e+01
	2.395250316417747e+01
	2.604916884894724e+01
	2.383254766187879e+01
	2.505093898786054e+01
	2.253818850826320e+01
	2.364119705111628e+01
	2.677877907280592e+01
	2.186879931850275e+01
	2.246133122325953e+01
	2.144908484235780e+01
	2.391061500556691e+01
	2.480050299268711e+01
	2.322759907666811e+01
	2.028641606146718e+01
	2.416555208360581e+01
	2.353258676266763e+01
	2.365082443147492e+01
	2.296661283922991e+01
	2.272945194700112e+01
	2.295384425420234e+01
	2.597867268495761e+01
	2.401069496565271e+01
	2.454885679159416e+01
	2.208033791283156e+01
	2.524564996593369e+01
	2.340563083618033e+01

 2	1.000000000000000e-01
	3.961145534710241e+01
	4.098071879559366e+01
	3.746175246825847e+01
	3.845217283647708e+01
	3.980352005604086e+01
	4.083385381465531e+01
	3.965184064679688e+01
	4.038786099423432e+01
	4.092607254753693e+01
	3.769675765778562e+01
	4.251035705209953e+01
	4.009042430785627e+01
	3.667417103567000e+01
	3.817599245290604e+01
	4.013355115118652e+01
	3.648034114230877e+01
	4.177068075447406e+01
	3.957553261979801e+01
	3.784352935300346e+01
	4.115665509409744e+01
	3.789634902986159e+01
	4.100461872246994e+01
	4.168686465435005e+01
	3.883484274161696e+01
	3.714925943709989e+01
	4.087191549104728e+01
	3.818780531664558e+01
	3.919918826644276e+01
	4.158090306845892e+01
	3.890144596961149e+01
	4.061387114130167e+01
	4.165289567627293e+01
	3.923528232987621e+01
	4.013700220452686e+01
	4.067681960318932e+01
	4.011873244609033e+01
	3.987608108543914e+01
	3.745069211754634e+01
	4.161929822432946e+01
	3.982262802344180e+01
	3.825000718645291e+01
	4.013550839412558e+01
	3.767580656630342e+01
	4.029183635291653e+01
	4.080141935346528e+01
	3.683826951132063e+01
	3.754546371976392e+01
	3.887521162498913e+01
	4.082975718253849e+01
	3.382171193363863e+01
	3.895286847135194e+01
	4.000668478623264e+01
	3.887763764614258e+01
	3.728396940137047e+01
	4.163508905256875e+01
	3.925312275815271e+01
	3.924002093046863e+01
	4.018789184197317e+01
	4.104761930639165e+01
	3.968174688738030e+01
	4.043968483833726e+01
	3.938997620457852e+01
	4.214568343934510e+01
	3.953499240505145e+01
	4.062017297476878e+01
	3.588699237659133e+01
	3.973949895883460e+01
	3.983416406017727e+01
	3.875383319379313e+01
	3.916671694673666e+01
	4.018204793327827e+01
	4.133635858002163e+01
	4.076719878694588e+01
	4.179778348596003e+01
	3.909708720766555e+01
	4.119510591996350e+01
	3.896448948300453e+01
	4.022974977086548e+01
	3.750461929663578e+01
	3.874517632021279e+01
	4.185531573693588e+01
	3.671009841619399e+01
	3.740899856020409e+01
	3.620961855787407e+01
	3.904740459673638e+01
	3.997059480167039e+01
	3.828868547352612e+01
	3.475215785315316e+01
	3.932135011204974e+01
	3.863617716915574e+01
	3.877237835022400e+01
	3.800431299620633e+01
	3.772311884168804e+01
	3.798748736548501e+01
	4.113117254435871e+01
	3.915848584145476e+01
	3.971636835970236e+01
	3.697736865127416e+01
	4.041446745760139e+01
	3.848679790995649e+01

 3	1.500000000000000e-01
	4.670649465421785e+01
	4.737685802938660e+01
	4.538999129982256e+01
	4.607415785386226e+01
	4.679477890351077e+01
	4.730718815431083e+01
	4.673927370783012e+01
	4.710023078696886e+01
	4.732609040059650e+01
	4.562993598633395e+01
	4.797204344051060e+01
	4.695266903513248e+01
	4.492209314600965e+01
	4.589207398985555e+01
	4.697037629040500e+01
	4.479337189822749e+01
	4.770398051239314e+01
	4.669401771879573e+01
	4.571627079195928e+01
	4.745324562381310e+01
	4.574936483708555e+01
	4.736237153321686e+01
	4.767613927821783e+01
	4.628583341141786e+01
	4.527695804817922e+01
	4.732131225303790e+01
	4.592516791920961e+01
	4.649004565095063e+01
	4.762581057720923e+01
	4.633243627840354e+01
	4.720629374113715e+01
	4.768005581435740e+01
	4.650358443129073e+01
	4.697523418907828e+01
	4.721760221707645e+01
	4.696492674925929e+01
	4.684622222288670e+01
	4.545474389857100e+01
	4.764706567422957e+01
	4.681593104593118e+01
	4.595677324195798e+01
	4.695087712088138e+01
	4.560703916685988e+01
	4.701815483009039e+01
	4.728819997295956e+01
	4.507524904554894e+01
	4.551203734317396e+01
	4.628281091389889e+01
	4.728987557017403e+01
	4.283784816854484e+01
	4.636000662216837e+01
	4.691075656944972e+01
	4.631988171177994e+01
	4.534540487355083e+01
	4.765230849799985e+01
	4.652109442535035e+01
	4.650965359654529e+01
	4.698351280904610e+01
	4.739228845139585e+01
	4.674519180812889e+01
	4.711722861594914e+01
	4.659581172049537e+01
	4.785794810418414e+01
	4.665995853353683e+01
	4.720416139388634e+01
	4.438735756943858e+01
	4.677626620898661e+01
	4.681438223806103e+01
	4.625548851279221e+01
	4.647612131483572e+01
	4.698820938009506e+01
	4.750678739339994e+01
	4.725638293082406e+01
	4.767795389436289e+01
	4.642281722826949e+01
	4.749984352852709e+01
	4.636570252054872e+01
	4.701327750489400e+01
	4.543353377923012e+01
	4.623654230040213e+01
	4.772664196216343e+01
	4.498349748741244e+01
	4.534219210649962e+01
	4.464170177308061e+01
	4.641259113947137e+01
	4.689570831160536e+01
	4.597867038924424e+01
	4.354135086118279e+01
	4.655154179305305e+01
	4.616786192930675e+01
	4.625458935098611e+01
	4.576527732817347e+01
	4.563678603623907e+01
	4.579674950902794e+01
	4.743374050586836e+01
	4.647017629646859e+01
	4.676757614038591e+01
	4.515100214353850e+01
	4.711480617812936e+01
	4.609449790112408e+01

 4	2.000000000000000e-01
	4.899527089267518e+01
	4.925274334587456e+01
	4.836903501791916e+01
	4.876211350021719e+01
	4.900617727820642e+01
	4.922499599359207e+01
	4.903250814918697e+01
	4.915635890175360e+01
	4.918876051795593e+01
	4.861917193830124e+01
	4.939993792158702e+01
	4.908937677523676e+01
	4.823792812083650e+01
	4.865878881636285e+01
	4.908959974553654e+01
	4.818407333184997e+01
	4.933713507106278e+01
	4.901086006244665e+01
	4.863224187243414e+01
	4.927433420060434e+01
	4.866220054382763e+01
	4.920200580098874e+01
	4.934450361588537e+01
	4.883542398383687e+01
	4.845481159095174e+01
	4.921794454093153e+01
	4.871720831171899e+01
	4.892841456263385e+01
	4.931337463146224e+01
	4.886754215736487e+01
	4.918897166742526e+01
	4.936804323467533e+01
	4.891452244553448e+01
	4.910230857800688e+01
	4.916448153006174e+01
	4.909586729558060e+01
	4.905088960153428e+01
	4.849857801661440e+01
	4.933139180814892e+01
	4.903608630018848e+01
	4.872991179602384e+01
	4.905779173773324e+01
	4.858593478088049e+01
	4.906365252515979e+01
	4.920265189023009e+01
	4.837410058651373e+01
	4.851943912742519e+01
	4.879763459838225e+01
	4.918814861739598e+01
	4.732235276885626e+01
	4.888729314105403e+01
	4.907777863630833e+01
	4.886150155977145e+01
	4.845446765464587e+01
	4.932992061812733e+01
	4.893787416736836e+01
	4.893166304532979e+01
	4.907463481710413e+01
	4.922670896571304e+01
	4.900831959705240e+01
	4.914882913939820e+01
	4.897365763126293e+01
	4.939620387278546e+01
	4.897585451322140e+01
	4.917321438335320e+01
	4.802090713508468e+01
	4.903009099590366e+01
	4.902030157152371e+01
	4.886080083267054e+01
	4.893252960314965e+01
	4.908716842022390e+01
	4.925199130268468e+01
	4.917404822679189e+01
	4.928507084413794e+01
	4.887065472571268e+01
	4.932890728403963e+01
	4.887748945551303e+01
	4.909928559145103e+01
	4.841233079522200e+01
	4.883003536378897e+01
	4.933089067196374e+01
	4.834188646154472e+01
	4.833110851103651e+01
	4.818464195432720e+01
	4.889809792360241e+01
	4.907944894798019e+01
	4.873962238249603e+01
	4.762045048749872e+01
	4.893287833835171e+01
	4.878249114366191e+01
	4.882389385727068e+01
	4.857533224815165e+01
	4.860664040270686e+01
	4.865729387607898e+01
	4.924790998904688e+01
	4.891077549717070e+01
	4.903121797658388e+01
	4.837751221483950e+01
	4.916147849733045e+01
	4.878454631992014e+01

 5	2.500000000000000e-01
	4.966250432224528e+01
	4.978924574988442e+01
	4.927589891565306e+01
	4.956216429803054e+01
	4.964831104503994e+01
	4.977401608931010e+01
	4.970339892155617e+01
	4.974895501265415e+01
	4.972278801166821e+01
	4.953381148094785e+01
	4.980252698504061e+01
	4.970935089970648e+01
	4.927954941883232e+01
	4.948560754013413e+01
	4.970353239950611e+01
	4.925736206066045e+01
	4.980422491335067e+01
	4.968826074899498e+01
	4.951537942721662e+01
	4.979427888396852e+01
	4.954714818119848e+01
	4.972928924522731e+01
	4.981635239787065e+01
	4.958799536628784e+01
	4.943996497719730e+01
	4.976314320332304e+01
	4.955517015391424e+01
	4.964507299714757e+01
	4.979494078149728e+01
	4.961611650039510e+01
	4.975947885270246e+01
	4.984613188093508e+01
	4.962105049671896e+01
	4.971744499199655e+01
	4.972272118940478e+01
	4.971212148391965e+01
	4.969207056300173e+01
	4.942899003103395e+01
	4.981231953983659e+01
	4.968170140211487e+01
	4.956245003033842e+01
	4.966553664281982e+01
	4.949374612217778e+01
	4.965421568740386e+01
	4.975313665360150e+01
	4.940912504577423e+01
	4.943631115445813e+01
	4.953805955575834e+01
	4.973256239234735e+01
	4.897999135941545e+01
	4.963385663117310e+01
	4.970719445174471e+01
	4.961201035490084e+01
	4.941199715299436e+01
	4.980988414243385e+01
	4.964725695520851e+01
	4.964261056089196e+01
	4.967913921628906e+01
	4.975320242703427e+01
	4.966727304982698e+01
	4.973299692473165e+01
	4.967070175787146e+01
	4.983394238607418e+01
	4.965126850647584e+01
	4.974129149785359e+01
	4.920496051138762e+01
	4.968691499732542e+01
	4.966083401734491e+01
	4.963500231864460e+01
	4.965619588189385e+01
	4.969455262759693e+01
	4.975059335096259e+01
	4.972341108298552e+01
	4.974146420644695e+01
	4.958862408700656e+01
	4.985104332674438e+01
	4.961810219412369e+01
	4.970268677050070e+01
	4.931910722599417e+01
	4.959909096464835e+01
	4.978717523157705e+01
	4.940679085817105e+01
	4.924233314571762e+01
	4.932796535785718e+01
	4.963026347913472e+01
	4.971469477265089e+01
	4.956786305582519e+01
	4.903599846212397e+01
	4.962969241610902e+01
	4.955707486672896e+01
	4.958266274423531e+01
	4.941789905788202e+01
	4.951280985270826e+01
	4.952033250262478e+01
	4.976874635641645e+01
	4.962725274335679e+01
	4.969187451802867e+01
	4.938154751724707e+01
	4.975234488130219e+01
	4.958745939947958e+01

 6	3.000000000000000e-01
	4.988853829359551e+01
	4.995704700606527e+01
	4.958805345973001e+01
	4.983769681470496e+01
	4.986821836405601e+01
	4.994684962703597e+01
	4.992837538799122e+01
	4.994078715945486e+01
	4.989813923553525e+01
	4.984532110423572e+01
	4.991556254237275e+01
	4.991720437536929e+01
	4.963551486047161e+01
	4.977119819533650e+01
	4.990905116270905e+01
	4.962374085629189e+01
	4.995013076979500e+01
	4.991316137241945e+01
	4.981869968293391e+01
	4.995588315250080e+01
	4.984678716174571e+01
	4.990218255192215e+01
	4.995472465006484e+01
	4.984607771741571e+01
	4.977710075052205e+01
	4.994112456297811e+01
	4.984319378877451e+01
	4.988550497507521e+01
	4.994464163835779e+01
	4.987294222316913e+01
	4.994436457443483e+01
	4.998676026201070e+01
	4.986205705227042e+01
	4.992185394168020e+01
	4.990378525606526e+01
	4.991737583385261e+01
	4.990904210880586e+01
	4.974884901607409e+01
	4.996020364868319e+01
	4.989958115525495e+01
	4.984624522554780e+01
	4.986864028845405e+01
	4.980407179882971e+01
	4.985300048088740e+01
	4.993453459175131e+01
	4.976264611726388e+01
	4.975146513342153e+01
	4.979207141470710e+01
	4.991054839822767e+01
	4.954162679916742e+01
	4.988507735092021e+01
	4.991655369147949e+01
	4.987049595444795e+01
	4.973992582039141e+01
	4.995922370038295e+01
	4.988734759759213e+01
	4.988087260245923e+01
	4.988143534437691e+01
	4.992589316286401e+01
	4.989243937241199e+01
	4.992208604173877e+01
	4.990323401192059e+01
	4.996354914147398e+01
	4.987640750876666e+01
	4.993152881800086e+01
	4.960679592739159e+01
	4.990722848403407e+01
	4.987919062236708e+01
	4.989543350736921e+01
	4.989798990559351e+01
	4.989760188732956e+01
	4.990938750779251e+01
	4.990089145171824e+01
	4.987982362234146e+01
	4.983614719768318e+01
	5.001123833365634e+01
	4.987188517847837e+01
	4.990369399356575e+01
	4.963082610121369e+01
	4.985880717046822e+01
	4.992575627445867e+01
	4.976823827801576e+01
	4.955550039555838e+01
	4.971615590407903e+01
	4.988066867883835e+01
	4.992541214922196e+01
	4.984901213566192e+01
	4.951427374092442e+01
	4.986790288836530e+01
	4.982293599671751e+01
	4.984492881245073e+01
	4.970865535106544e+01
	4.982060300984703e+01
	4.981586908890499e+01
	4.993869615176500e+01
	4.987339708866926e+01
	4.991467858215116e+01
	4.972514989244999e+01
	4.994608473230016e+01
	4.985934972872929e+01

 7	3.500000000000000e-01
	4.995885542846197e+01
	4.999489946226035e+01
	4.970913548605271e+01
	4.993882474304043e+01
	4.993786710576740e+01
	4.998658706405640e+01
	4.999569334208454e+01
	4.998878647722888e+01
	4.994185223880032e+01
	4.996092609266229e+01
	4.993662261004158e+01
	4.997727583121300e+01
	4.977877835979263e+01
	4.987991792786297e+01
	4.996802518848081e+01
	4.977243679848183e+01
	4.998163075424424e+01
	4.997908102627295e+01
	4.993478450129835e+01
	4.999162783835524e+01
	4.995425990272987e+01
	4.994490467533878e+01
	4.998239066595668e+01
	4.993600846782111e+01
	4.990959914781697e+01
	4.998504104047820e+01
	4.995041083258930e+01
	4.996063864333444e+01
	4.997698687652730e+01
	4.996185590317224e+01
	4.999001032658949e+01
	5.001507708313441e+01
	4.994146383212989e+01
	4.997752217091983e+01
	4.994844918784839e+01
	4.997374454901503e+01
	4.997466713973196e+01
	4.987441542906115e+01
	4.999166648916007e+01
	4.996532496383624e+01
	4.994777644168737e+01
	4.992498863817238e+01
	4.992200464100420e+01
	4.991012449920198e+01
	4.998051789969718e+01
	4.990355769054339e+01
	4.987385560598447e+01
	4.988020745524616e+01
	4.995477982608213e+01
	4.976691183183006e+01
	4.996599815606996e+01
	4.997618458157081e+01
	4.996149092844563e+01
	4.986765432635247e+01
	4.999152921287067e+01
	4.996411172808799e+01
	4.995486756159180e+01
	4.993917732940093e+01
	4.996849363793978e+01
	4.996397757536612e+01
	4.996930372482515e+01
	4.997344985202567e+01
	4.998936464466219e+01
	4.994358624165650e+01
	4.998240878374975e+01
	4.977064498752404e+01
	4.997290740432102e+01
	4.994715322822623e+01
	4.998051210018775e+01
	4.997264768813778e+01
	4.995547266076341e+01
	4.994554549236365e+01
	4.994401557916296e+01
	4.990821542310225e+01
	4.992198066382296e+01
	5.004595949602628e+01
	4.995889146226036e+01
	4.996019266635069e+01
	4.975107543346866e+01
	4.994504317682477e+01
	4.995430290025561e+01
	4.990783039737556e+01
	4.967635288239558e+01
	4.987218739056836e+01
	4.996519133731292e+01
	4.998507687110031e+01
	4.994776872677066e+01
	4.970849118477984e+01
	4.994636961613776e+01
	4.991758675583117e+01
	4.993968721819780e+01
	4.982011522992278e+01
	4.993389099182399e+01
	4.992619282359519e+01
	4.997989213764958e+01
	4.995710229707727e+01
	4.998218755353071e+01
	4.986207600036281e+01
	4.999590368144808e+01
	4.995247524010456e+01

 8	4.000000000000000e-01
	4.997325962947306e+01
	5.000286267316733e+01
	4.974647141744158e+01
	4.996467930584812e+01
	4.995219348647611e+01
	4.999476728927165e+01
	5.000938587318426e+01
	4.999847734832893e+01
	4.995046888794588e+01
	4.999244632063188e+01
	4.994196564390160e+01
	4.998921788884126e+01
	4.983113269979226e+01
	4.991018124549692e+01
	4.997968323616541e+01
	4.982910829039692e+01
	4.998840270288363e+01
	4.999236006545836e+01
	4.996825040102544e+01
	4.999925943079614e+01
	4.998155680130634e+01
	4.995336007450535e+01
	4.998890845469477e+01
	4.995688359466573e+01
	4.995341089175241e+01
	4.999390495216222e+01
	4.997895260580695e+01
	4.997626565493974e+01
	4.998388804211405e+01
	4.998230928543158e+01
	4.999926933089104e+01
	5.002178958153045e+01
	4.995855925944589e+01
	4.998854225818101e+01
	4.995733041483996e+01
	4.998488368145330e+01
	4.998791873773165e+01
	4.991472238243232e+01
	4.999862743459513e+01
	4.997855847555991e+01
	4.997295923372876e+01
	4.993600688205341e+01
	4.995588921038188e+01
	4.992128618768317e+01
	4.998969067025858e+01
	4.995327515103920e+01
	4.991187592744405e+01
	4.990047865183347e+01
	4.996354423597511e+01
	4.987248490838700e+01
	4.998329886585879e+01
	4.998801430061787e+01
	4.998289572632093e+01
	4.990846997719392e+01
	4.999858035358405e+01
	4.998028129077185e+01
	4.997016805555405e+01
	4.995049921193958e+01
	4.997699653424653e+01
	4.997880920390766e+01
	4.997873929806239e+01
	4.998776763645048e+01
	4.999553862139740e+01
	4.995709344734421e+01
	4.999250332905645e+01
	4.983770039716431e+01
	4.998612050255338e+01
	4.996098864836868e+01
	4.999906086949407e+01
	4.998811547572300e+01
	4.996684928481741e+01
	4.995279069959702e+01
	4.995261692438432e+01
	4.991439575590891e+01
	4.994156784301443e+01
	5.005359441436364e+01
	4.997862245721159e+01
	4.997129077810428e+01
	4.978768061163073e+01
	4.996410122056817e+01
	4.996058879234435e+01
	4.995373419753175e+01
	4.971323667798537e+01
	4.993187741590921e+01
	4.998398688815504e+01
	4.999696303121880e+01
	4.997157644780263e+01
	4.979486582215625e+01
	4.996322194973039e+01
	4.994040988583220e+01
	4.996291681461508e+01
	4.985189088884572e+01
	4.996433907988033e+01
	4.995610908454731e+01
	4.998823798081577e+01
	4.997577464181007e+01
	4.999591355700592e+01
	4.990970566645728e+01
	5.000591975871162e+01
	4.997399344750669e+01

 9	4.500000000000000e-01
	4.997714081907281e+01
	5.000627378850490e+01
	4.975433360272032e+01
	4.997012681565556e+01
	4.995596623915408e+01
	4.999817458970407e+01
	5.001337419167798e+01
	5.000195372522627e+01
	4.995351954015518e+01
	4.999904793042889e+01
	4.994468521798343e+01
	4.999283279199282e+01
	4.984340669680074e+01
	4.991654781748615e+01
	4.998322254374914e+01
	4.984307306390230e+01
	4.999147044204669e+01
	4.999627518123692e+01
	4.997533001572228e+01
	5.000261888447866e+01
	4.998741715245595e+01
	4.995639554010271e+01
	4.999199448908846e+01
	4.996159904855165e+01
	4.996295335163138e+01
	4.999714964882618e+01
	4.998488840570825e+01
	4.998042738237133e+01
	4.998696980129279e+01
	4.998703287840186e+01
	5.000266280588364e+01
	5.002497793225310e+01
	4.996275815185203e+01
	4.999209969901847e+01
	4.996051412268230e+01
	4.998843080666947e+01
	4.999168950117701e+01
	4.992333506549803e+01
	5.000177219605193e+01
	4.998229460541744e+01
	4.997843337798216e+01
	4.993941463804849e+01
	4.996306138460312e+01
	4.992460981026876e+01
	4.999294809358959e+01
	4.996459444736963e+01
	4.991992066931417e+01
	4.990503138080143e+01
	4.996666881275369e+01
	4.991894134954310e+01
	4.998770150825712e+01
	4.999163497581801e+01
	4.998774054008138e+01
	4.991720260574177e+01
	5.000175847917176e+01
	4.998447068853821e+01
	4.997426489140031e+01
	4.995391831062452e+01
	4.998007839951537e+01
	4.998273411634054e+01
	4.998208780165805e+01
	4.999180006243557e+01
	4.999852583693925e+01
	4.996090846855937e+01
	4.999587895329632e+01
	4.985639232318022e+01
	4.998991715572090e+01
	4.996472167997939e+01
	5.000368392508276e+01
	4.999231738274477e+01
	4.997029805498714e+01
	4.995588803944305e+01
	4.995574183709731e+01
	4.991722252364931e+01
	4.994603737537177e+01
	5.005697088494328e+01
	4.998323103013938e+01
	4.997472856086365e+01
	4.979537718744409e+01
	4.996869656862467e+01
	4.996346931038166e+01
	4.996383220645298e+01
	4.972101271128587e+01
	4.994683371664183e+01
	4.998849571233684e+01
	5.000065771067690e+01
	4.997687231169035e+01
	4.982559844917924e+01
	4.996737848034346e+01
	4.994538140407854e+01
	4.996794365777431e+01
	4.985853607722857e+01
	4.997068706166758e+01
	4.996225107437653e+01
	4.999135798309840e+01
	4.998020436715913e+01
	4.999982171300055e+01
	4.992038203054111e+01
	5.000943191285493e+01
	4.997895752993404e+01

 10	4.999999999999999e-01
	4.997915014778913e+01
	5.000839217082667e+01
	4.975675452423094e+01
	4.997248805466040e+01
	4.995790985782217e+01
	5.000024440316613e+01
	5.001552072103025e+01
	5.000405513527377e+01
	4.995536890106867e+01
	5.000174416337148e+01
	4.994658698723105e+01
	4.999484065376419e+01
	4.984647099262623e+01
	4.991877192874882e+01
	4.998519660479175e+01
	4.984638671988537e+01
	4.999342218895445e+01
	4.999839720976019e+01
	4.997772336701937e+01
	5.000473841379992e+01
	4.998989626287724e+01
	4.995825215188825e+01
	4.999407335745816e+01
	4.996376084758516e+01
	4.996569360287583e+01
	4.999914067752042e+01
	4.998740287302957e+01
	4.998254687368654e+01
	4.998891946942383e+01
	4.998922261013129e+01
	5.000474338634210e+01
	5.002713311110342e+01
	4.996479828823228e+01
	4.999414190924166e+01
	4.996245010376212e+01
	4.999045203941667e+01
	4.999371233259213e+01
	4.992589434199199e+01
	5.000380828426619e+01
	4.998428446032204e+01
	4.998081217282198e+01
	4.994133433642087e+01
	4.996548625044411e+01
	4.992644692292097e+01
	4.999492547754533e+01
	4.996758628288844e+01
	4.992239371493743e+01
	4.990710100791581e+01
	4.996856746087197e+01
	4.993251168192462e+01
	4.998987897484458e+01
	4.999364567328401e+01
	4.998996371246206e+01
	4.991978956407151e+01
	5.000379757753078e+01
	4.998657630915542e+01
	4.997635958842644e+01
	4.995582311575478e+01
	4.998196612838812e+01
	4.998476360968692e+01
	4.998410313711613e+01
	4.999392715034968e+01
	5.000055403512742e+01
	4.996293615974794e+01
	4.999785670163832e+01
	4.986048713300742e+01
	4.999194916159680e+01
	4.996666976034417e+01
	5.000591973665239e+01
	4.999446709454721e+01
	4.997221401933894e+01
	4.995773553367433e+01
	4.995765245157453e+01
	4.991904346318796e+01
	4.994811317551401e+01
	5.005914533611102e+01
	4.998538256521882e+01
	4.997666434269324e+01
	4.979778457516176e+01
	4.997087320196824e+01
	4.996533630509641e+01
	4.996673177504570e+01
	4.972344975891685e+01
	4.995038150715475e+01
	4.999064023895894e+01
	5.000272468686564e+01
	4.997922873789079e+01
	4.983276841938556e+01
	4.996940686375446e+01
	4.994759409286849e+01
	4.997018942170649e+01
	4.986078057019771e+01
	4.997328748770138e+01
	4.996479335276613e+01
	4.999330049352532e+01
	4.998231191582337e+01
	5.000190516731305e+01
	4.992323536133215e+01
	5.001153319236220e+01
	4.998123470801311e+01

 11	5.499999999999999e-01
	4.998056186071115e+01
	5.001008029094942e+01
	4.975810220558368e+01
	4.997385816357718e+01
	4.995926285769945e+01
	5.000187902455658e+01
	5.001707250457203e+01
	5.000567416355028e+01
	4.995679388753430e+01
	5.000324468976434e+01
	4.994817203898068e+01
	4.999631654402782e+01
	4.984796057962604e+01
	4.992010297017705e+01
	4.998665047799207e+01
	4.984793574056972e+01
	4.999500003369153e+01
	4.999993889200798e+01
	4.997912553585251e+01
	5.000644142076892e+01
	4.999135821229169e+01
	4.995968947749249e+01
	4.999577575935530e+01
	4.996512410520339e+01
	4.996715518557467e+01
	5.000068570783743e+01
	4.998881670227649e+01
	4.998402589771186e+01
	4.999048932613628e+01
	4.999062583353021e+01
	5.000635781262345e+01
	5.002890080317411e+01
	4.996616416329790e+01
	4.999567307343992e+01
	4.996394547166497e+01
	4.999196098439366e+01
	4.999516705637541e+01
	4.992729595797402e+01
	5.000545382105804e+01
	4.998570946011197e+01
	4.998224338735830e+01
	4.994275611074382e+01
	4.996690670830336e+01
	4.992778901256813e+01
	4.999645180095771e+01
	4.996909478916781e+01
	4.992376762018503e+01
	4.990839911338669e+01
	4.997003301329309e+01
	4.993568933799031e+01
	4.999136660600119e+01
	4.999512490440003e+01
	4.999136474880266e+01