Title: monte carlo simulation plot
Date: Mon Aug  1 12:43:05  2022
Plotname: monte_carlo
Flags: real
No. Variables: 101
No. Points: 27
Variables:
	0	voltage_sweep	voltage
	1	output_current_0	notype
	2	output_current_1	notype
	3	output_current_2	notype
	4	output_current_3	notype
	5	output_current_4	notype
	6	output_current_5	notype
	7	output_current_6	notype
	8	output_current_7	notype
	9	output_current_8	notype
	10	output_current_9	notype
	11	output_current_10	notype
	12	output_current_11	notype
	13	output_current_12	notype
	14	output_current_13	notype
	15	output_current_14	notype
	16	output_current_15	notype
	17	output_current_16	notype
	18	output_current_17	notype
	19	output_current_18	notype
	20	output_current_19	notype
	21	output_current_20	notype
	22	output_current_21	notype
	23	output_current_22	notype
	24	output_current_23	notype
	25	output_current_24	notype
	26	output_current_25	notype
	27	output_current_26	notype
	28	output_current_27	notype
	29	output_current_28	notype
	30	output_current_29	notype
	31	output_current_30	notype
	32	output_current_31	notype
	33	output_current_32	notype
	34	output_current_33	notype
	35	output_current_34	notype
	36	output_current_35	notype
	37	output_current_36	notype
	38	output_current_37	notype
	39	output_current_38	notype
	40	output_current_39	notype
	41	output_current_40	notype
	42	output_current_41	notype
	43	output_current_42	notype
	44	output_current_43	notype
	45	output_current_44	notype
	46	output_current_45	notype
	47	output_current_46	notype
	48	output_current_47	notype
	49	output_current_48	notype
	50	output_current_49	notype
	51	output_current_50	notype
	52	output_current_51	notype
	53	output_current_52	notype
	54	output_current_53	notype
	55	output_current_54	notype
	56	output_current_55	notype
	57	output_current_56	notype
	58	output_current_57	notype
	59	output_current_58	notype
	60	output_current_59	notype
	61	output_current_60	notype
	62	output_current_61	notype
	63	output_current_62	notype
	64	output_current_63	notype
	65	output_current_64	notype
	66	output_current_65	notype
	67	output_current_66	notype
	68	output_current_67	notype
	69	output_current_68	notype
	70	output_current_69	notype
	71	output_current_70	notype
	72	output_current_71	notype
	73	output_current_72	notype
	74	output_current_73	notype
	75	output_current_74	notype
	76	output_current_75	notype
	77	output_current_76	notype
	78	output_current_77	notype
	79	output_current_78	notype
	80	output_current_79	notype
	81	output_current_80	notype
	82	output_current_81	notype
	83	output_current_82	notype
	84	output_current_83	notype
	85	output_current_84	notype
	86	output_current_85	notype
	87	output_current_86	notype
	88	output_current_87	notype
	89	output_current_88	notype
	90	output_current_89	notype
	91	output_current_90	notype
	92	output_current_91	notype
	93	output_current_92	notype
	94	output_current_93	notype
	95	output_current_94	notype
	96	output_current_95	notype
	97	output_current_96	notype
	98	output_current_97	notype
	99	output_current_98	notype
	100	output_current_99	notype
Values:
 0	0.000000000000000e+00
	-6.264858539537513e-02
	-1.494182732124496e-02
	-7.351020357949783e-01
	-1.009969499735579e-01
	-1.024135456252707e-01
	-2.177103390442757e-02
	-1.343422712185788e-02
	-1.933701432411715e-02
	-7.876308101692431e-02
	-4.230553643058036e-02
	-6.259261927455211e-02
	-2.938875730858615e-02
	-6.111008447519199e-01
	-2.546034232501272e-01
	-4.585394461957829e-02
	-6.401088658506405e-01
	-2.114367857805460e-02
	-2.954394152940415e-02
	-9.917068605826106e-02
	-1.578196313238756e-02
	-8.437311504951278e-02
	-7.489288617801172e-02
	-2.341764196232352e-02
	-1.100216664819969e-01
	-1.587985736147917e-01
	-1.821003719087073e-02
	-6.615290538298486e-02
	-5.892318945367785e-02
	-2.819793443046859e-02
	-5.080539234017440e-02
	-1.677755493011620e-02
	-1.273165566297745e-02
	-9.702214819598504e-02
	-3.117340968086482e-02
	-7.041524477805289e-02
	-3.673516710726085e-02
	-3.267858620789565e-02
	-2.785164862718127e-01
	-1.088909857724417e-02
	-5.048093818059409e-02
	-7.919812227107191e-02
	-1.132563022766103e-01
	-1.363127748136329e-01
	-1.390162476667630e-01
	-2.534296850572427e-02
	-1.662134402604667e-01
	-2.750940378980717e-01
	-2.253576073393807e-01
	-6.192031421774100e-02
	-6.713926873943787e-01
	-5.427597133462182e-02
	-3.223254263554653e-02
	-4.956090220923469e-02
	-2.953463284832749e-01
	-9.689339964684946e-03
	-5.191398200220716e-02
	-7.013571532897064e-02
	-9.243457815619199e-02
	-4.068377552067298e-02
	-5.297274066644966e-02
	-4.309815440829307e-02
	-3.824998054866394e-02
	-1.189896361113247e-02
	-9.161575405127988e-02
	-1.828865645645554e-02
	-6.911975008330352e-01
	-3.720171907744796e-02
	-8.361035044831941e-02
	-4.174063372006689e-02
	-3.828537383436666e-02
	-6.577850506364367e-02
	-6.813678428346609e-02
	-7.580124300401044e-02
	-1.023765619470770e-01
	-1.382010095121493e-01
	-9.486227589807049e-03
	-5.830682682385043e-02
	-5.861346886435131e-02
	-6.156201934056360e-01
	-9.083281160632448e-02
	-5.106194124353833e-02
	-1.600374472199420e-01
	-8.073838202512675e-01
	-2.613805539361038e-01
	-4.525453414929951e-02
	-1.998781787701883e-02
	-8.199338235206678e-02
	-1.046698878232943e+00
	-8.606648521151372e-02
	-1.522625448457152e-01
	-1.013615036535842e-01
	-4.133161197934998e-01
	-1.100119361209996e-01
	-1.294353260878439e-01
	-2.447499459670054e-02
	-6.304831802115207e-02
	-2.026431431291601e-02
	-3.170214117559204e-01
	-1.325412673969846e-02
	-7.679422493094996e-02

 1	5.000000000000000e-02
	2.489807621137334e+01
	2.638320411051684e+01
	1.125710708693706e+01
	2.315633705162942e+01
	1.126137383247717e+01
	2.622173915382126e+01
	2.504714961430808e+01
	2.576404261833828e+01
	1.247974312893255e+01
	2.320446354923771e+01
	8.340163861298681e+00
	2.540265877187331e+01
	1.537604593322808e+01
	1.212325478260181e+01
	2.541764236118195e+01
	1.244714683127339e+01
	1.964218668918153e+01
	2.493798164204667e+01
	2.323363898367354e+01
	2.654698554700697e+01
	2.335993492279481e+01
	1.309277697563989e+01
	2.712039181767449e+01
	2.292931692038814e+01
	2.258950194340112e+01
	2.622369025364365e+01
	2.357016891384037e+01
	2.453433333058204e+01
	2.352183067168886e+01
	2.423848748038857e+01
	2.598743703336663e+01
	2.713311175836031e+01
	2.207429379674959e+01
	2.546720696693333e+01
	2.090550969284977e+01
	2.543888327088701e+01
	2.517901124030498e+01
	1.890747429074554e+01
	2.706044259876013e+01
	2.511458860217852e+01
	2.364288705379006e+01
	1.822266587036409e+01
	2.307339909904881e+01
	8.148276577911863e+00
	2.611997153609540e+01
	2.231910922796231e+01
	1.804010768400167e+01
	1.323372422919091e+01
	1.940676236327041e+01
	1.950036864798913e+01
	2.432161883146952e+01
	2.534178590483309e+01
	2.419897864785483e+01
	2.112682078689770e+01
	2.706123340508832e+01
	2.458281335803369e+01
	2.456227752905833e+01
	1.770660436585167e+01
	1.506774515990742e+01
	2.449324629872902e+01
	2.576655554528717e+01
	2.474656875464643e+01
	2.762342885483126e+01
	2.481977481909651e+01
	2.479945829657218e+01
	1.856006615280999e+01
	2.507212942761869e+01
	1.595992934417189e+01
	2.417276750253287e+01
	2.454876074602205e+01
	2.016467594480851e+01
	1.247937325323781e+01
	1.916149187985528e+01
	7.397134389030419e+00
	1.174343251035358e+01
	2.664417315466653e+01
	2.429112592767195e+01
	2.317687188007017e+01
	1.329429357404876e+01
	2.408910660504801e+01
	1.136691815907401e+01
	2.225665858741064e+01
	1.175861443895464e+01
	2.172928444611104e+01
	2.438620419890295e+01
	2.533678231068047e+01
	2.367469613573473e+01
	1.995905973711928e+01
	2.027414085989507e+01
	2.078319542931018e+01
	1.619131501332487e+01
	1.076430653061547e+01
	2.315944028147916e+01
	2.334953748043465e+01
	2.194724455090809e+01
	2.201712804030838e+01
	2.507077494988636e+01
	1.939716898493096e+01
	2.580203282382353e+01
	2.386831927415119e+01

 2	1.000000000000000e-01
	4.009924784964470e+01
	4.155866010470476e+01
	1.672401438690462e+01
	3.777371167389511e+01
	1.540802064794783e+01
	4.139926416930840e+01
	4.030406137230352e+01
	4.098093959653125e+01
	1.692960848137721e+01
	3.834814485968025e+01
	1.029448332849061e+01
	4.060552978843175e+01
	2.451699081678282e+01
	1.756041232828546e+01
	4.060819096542059e+01
	1.918155389598198e+01
	2.850898082642161e+01
	4.017190628859027e+01
	3.835230391574127e+01
	4.169415405258611e+01
	3.853750196667000e+01
	1.788881760182454e+01
	4.216732760575835e+01
	3.703434999491892e+01
	3.764354744008823e+01
	4.137758778275367e+01
	3.872637538915942e+01
	3.974782038210115e+01
	3.563058929310046e+01
	3.943262295778740e+01
	4.118810085951252e+01
	4.224638707061505e+01
	3.505630782263641e+01
	4.067806100840920e+01
	3.168519058401021e+01
	4.064457111906247e+01
	4.038365606373584e+01
	3.046829412329188e+01
	4.212526469580678e+01
	4.031410606691909e+01
	3.881363288311848e+01
	2.724101845921864e+01
	3.818905144816398e+01
	1.047012426856413e+01
	4.127384369064001e+01
	3.733152662192916e+01
	2.873452375685493e+01
	1.914588615540397e+01
	2.882857780197613e+01
	3.400865887179976e+01
	3.954950031432290e+01
	4.055316093219750e+01
	3.938208466928983e+01
	3.487412841078630e+01
	4.212109543058227e+01
	3.979693555253088e+01
	3.977394085019984e+01
	2.625351650047375e+01
	2.112275615584860e+01
	3.928667927159647e+01
	4.095043093508763e+01
	3.997646302289829e+01
	4.256603836345516e+01
	4.003059924171965e+01
	3.894479051730479e+01
	3.119555528119573e+01
	4.028888703814160e+01
	2.336038495359596e+01
	3.941181853976303e+01
	3.977611459164947e+01
	3.070228503506073e+01
	1.675783271185525e+01
	2.844336268124090e+01
	9.120532378909452e+00
	1.646873487906879e+01
	4.184238020264351e+01
	3.948427784418310e+01
	3.627992690416340e+01
	2.023951568720921e+01
	3.928846424700971e+01
	1.483880130195023e+01
	3.727464438249193e+01
	1.771844385557535e+01
	3.666638480387938e+01
	3.958838417941193e+01
	4.056756034392331e+01
	3.885265690361356e+01
	3.473619002047987e+01
	3.157569305347783e+01
	3.310969907724783e+01
	2.440854115421201e+01
	1.540585764419462e+01
	3.829354694845767e+01
	3.849002717193567e+01
	3.317668920807125e+01
	3.498746258440111e+01
	4.030116423156375e+01
	3.174617677426583e+01
	4.102863837005227e+01
	3.906703724762431e+01

 3	1.500000000000000e-01
	4.680776696951530e+01
	4.755292010272510e+01
	1.829494994424878e+01
	4.464474154028094e+01
	1.627256781471464e+01
	4.746060707207798e+01
	4.704141005963213e+01
	4.730366559470463e+01
	1.782727576803167e+01
	4.601680028505812e+01
	1.060851608002751e+01
	4.707288461970691e+01
	2.812748497261044e+01
	1.897620204998458e+01
	4.704391361784336e+01
	2.143004613604183e+01
	3.083960158838865e+01
	4.693110850105412e+01
	4.591325837657629e+01
	4.758652803782686e+01
	4.612723352211178e+01
	1.887962784028179e+01
	4.771412317777823e+01
	4.332448647449021e+01
	4.550613512216070e+01
	4.740367221263571e+01
	4.615069301542392e+01
	4.668475947525131e+01
	3.953059063866479e+01
	4.650809534691331e+01
	4.738569168825165e+01
	4.786708613457543e+01
	4.035774091628534e+01
	4.712837263472301e+01
	3.515913605794734e+01
	4.709809527035863e+01
	4.696486627817531e+01
	3.547170500942391e+01
	4.771329178599815e+01
	4.691157015519212e+01
	4.620946476409350e+01
	2.995160824660723e+01
	4.583403193773481e+01
	1.088394408856400e+01
	4.734357260497107e+01
	4.531228894030207e+01
	3.308985802159174e+01
	2.067640719439069e+01
	3.158183055301951e+01
	4.295781741662542e+01
	4.663391446383552e+01
	4.706112576607652e+01
	4.646514010206589e+01
	4.161538264333613e+01
	4.770416218645608e+01
	4.670784930786275e+01
	4.668535181726508e+01
	2.872551536266363e+01
	2.249556122179211e+01
	4.568127264935003e+01
	4.721574184757618e+01
	4.683008623849430e+01
	4.782312511605251e+01
	4.678592827767471e+01
	4.442686716088712e+01
	3.768226210097247e+01
	4.694108023258251e+01
	2.537692481838455e+01
	4.660850056785372e+01
	4.673590445957517e+01
	3.417312583599524e+01
	1.759153068439353e+01
	3.114558237113548e+01
	9.404137104979895e+00
	1.754829556799525e+01
	4.775571495241695e+01
	4.652189409511554e+01
	4.125944295773308e+01
	2.244862279043511e+01
	4.644525537730610e+01
	1.545987851462476e+01
	4.532413509808161e+01
	1.952051884415999e+01
	4.489476040480702e+01
	4.659236006041684e+01
	4.711288855421716e+01
	4.624179102438427e+01
	4.347196674537017e+01
	3.574570364593688e+01
	3.820155849429646e+01
	2.697821668726794e+01
	1.656770374527461e+01
	4.593190616635303e+01
	4.599333916739732e+01
	3.675522216126342e+01
	4.031495186928918e+01
	4.698239572649616e+01
	3.751520458674718e+01
	4.734666202098271e+01
	4.636842451658310e+01

 4	2.000000000000000e-01
	4.878335208442384e+01
	4.915977254053502e+01
	1.878521273843722e+01
	4.681891059986061e+01
	1.648956399695109e+01
	4.909828744516427e+01
	4.902827937624718e+01
	4.906773191514229e+01
	1.804996922572986e+01
	4.866435957456231e+01
	1.070238813268725e+01
	4.891233121449043e+01
	2.919772842079255e+01
	1.934168367524053e+01
	4.886778730946997e+01
	2.208898732420977e+01
	3.137425305829527e+01
	4.893427649667022e+01
	4.847912812840300e+01
	4.914865287430903e+01
	4.870587304668119e+01
	1.912202698490595e+01
	4.913307925803571e+01
	4.520920228232441e+01
	4.833653997453943e+01
	4.902471085707562e+01
	4.860553230854725e+01
	4.879913470382684e+01
	4.046531350106902e+01
	4.871176159792156e+01
	4.908757971033438e+01
	4.931361116780218e+01
	4.182499299025771e+01
	4.895915439438975e+01
	3.599779693322196e+01
	4.893088907112746e+01
	4.886662406546126e+01
	3.695867205223018e+01
	4.914747615915208e+01
	4.882317268403865e+01
	4.864212370821923e+01
	3.060069647142240e+01
	4.846945044299062e+01
	1.100729428896185e+01
	4.898527498533321e+01
	4.825734650568668e+01
	3.432527428009948e+01
	2.106237203259404e+01
	3.222812027874208e+01
	4.716074509422360e+01
	4.884110189742343e+01
	4.892205702954197e+01
	4.867530450202491e+01
	4.388435424406843e+01
	4.913653132747808e+01
	4.880480692060103e+01
	4.878408133219973e+01
	2.931027402031908e+01
	2.281580620806974e+01
	4.753241425066836e+01
	4.895283483082351e+01
	4.889054834621999e+01
	4.913236662609376e+01
	4.879023342488093e+01
	4.587457316362030e+01
	4.005012245927669e+01
	4.888223394547680e+01
	2.585056622230386e+01
	4.888890362871457e+01
	4.886247408821421e+01
	3.501697884814698e+01
	1.779986557867816e+01
	3.178179403561530e+01
	9.493939619632059e+00
	1.781723389060745e+01
	4.932442019958249e+01
	4.870088061174633e+01
	4.256196952457888e+01
	2.308166194269434e+01
	4.870548977495346e+01
	1.562107242276392e+01
	4.833324598634893e+01
	2.008151275305152e+01
	4.809936203102713e+01
	4.874829809266008e+01
	4.899296917977971e+01
	4.866936230814301e+01
	4.729751368076889e+01
	3.682080576203404e+01
	3.963352153805587e+01
	2.759960002015368e+01
	1.690194478717725e+01
	4.855871608849620e+01
	4.851248183377808e+01
	3.760851835681468e+01
	4.179077947782636e+01
	4.893869863746699e+01
	3.936285363658246e+01
	4.910709295581953e+01
	4.872883916646662e+01

 5	2.500000000000000e-01
	4.935341607034205e+01
	4.963517116791873e+01
	1.903280918154555e+01
	4.745679445985790e+01
	1.658323267097616e+01
	4.958103000958676e+01
	4.960159616464394e+01
	4.958252511329167e+01
	1.814515723279754e+01
	4.943374305843074e+01
	1.075056569022309e+01
	4.944581210476295e+01
	2.960594837607541e+01
	1.949622137245176e+01
	4.939736184498568e+01
	2.238065910112135e+01
	3.156284727003382e+01
	4.951191574259408e+01
	4.922307277581569e+01
	4.961295473891975e+01
	4.945388691051755e+01
	1.922361664856149e+01
	4.956231450253638e+01
	4.576617701166600e+01
	4.917078355853518e+01
	4.950284408306244e+01
	4.931376389932883e+01
	4.940777156325080e+01
	4.076526571051556e+01
	4.934484447478177e+01
	4.958649850467082e+01
	4.975006999107727e+01
	4.226585968960476e+01
	4.949075400185760e+01
	3.627117660613862e+01
	4.946296795466684e+01
	4.941641342926027e+01
	3.743032193753454e+01
	4.958059363453261e+01
	4.937580781985153e+01
	4.934427487222849e+01
	3.082479595060994e+01
	4.923748272076130e+01
	1.107031081518041e+01
	4.946841071133429e+01
	4.913230257420822e+01
	3.472669555315945e+01
	2.122082943115957e+01
	3.244831720504438e+01
	4.862222323432827e+01
	4.947590787830378e+01
	4.946128883358638e+01
	4.931017535729607e+01
	4.458556384788156e+01
	4.956927598028763e+01
	4.940816724865386e+01
	4.938858584694412e+01
	2.951430012771350e+01
	2.293956188682790e+01
	4.807339049922176e+01
	4.946049854958907e+01
	4.948389951535187e+01
	4.953564047659111e+01
	4.936928573357640e+01
	4.630625375910213e+01
	4.086146198548708e+01
	4.944273211785594e+01
	2.602103445024885e+01
	4.954473268859198e+01
	4.947422468113099e+01
	3.528935260253265e+01
	1.789000388756606e+01
	3.200032407836301e+01
	9.541863293644317e+00
	1.793029915310332e+01
	4.979099627267620e+01
	4.932705162593231e+01
	4.295708579062931e+01
	2.336112342455178e+01
	4.935660332322750e+01
	1.569416516260095e+01
	4.923184624239761e+01
	2.035997704278800e+01
	4.907581274871771e+01
	4.936770604894872e+01
	4.953748157111729e+01
	4.937024158211930e+01
	4.857367678402281e+01
	3.715465784510734e+01
	4.007134800525333e+01
	2.781078140468062e+01
	1.706296125172317e+01
	4.932329360511785e+01
	4.924295130399057e+01
	3.788340356417649e+01
	4.222881069573825e+01
	4.950326203645829e+01
	3.994416269179698e+01
	4.962106939649974e+01
	4.940915461731986e+01

 6	3.000000000000000e-01
	4.958413130314379e+01
	4.983991801786885e+01
	1.919428770528792e+01
	4.771243323414289e+01
	1.664036523535808e+01
	4.978758531252580e+01
	4.983345144616256e+01
	4.979804914159117e+01
	1.820298083727049e+01
	4.971864836107493e+01
	1.078335625804183e+01
	4.966633073099735e+01
	2.983041320213939e+01
	1.958835431414363e+01
	4.961682341309177e+01
	2.255858448330984e+01
	3.166263932936810e+01
	4.974453696333730e+01
	4.950188223958041e+01
	4.981460126824507e+01
	4.973360296390661e+01
	1.928456592410234e+01
	4.975374230048912e+01
	4.599781343402488e+01
	4.947603563991107e+01
	4.970827717699715e+01
	4.958219490630881e+01
	4.964900403626820e+01
	4.090972684725751e+01
	4.959257158210456e+01
	4.979775284336065e+01
	4.994391130747479e+01
	4.245856137062641e+01
	4.971074498916769e+01
	3.640477144952283e+01
	4.968306873574628e+01
	4.964138340752232e+01
	3.764647755392079e+01
	4.977374768331254e+01
	4.960160618052898e+01
	4.961133986443886e+01
	3.094033881398850e+01
	4.952392342979324e+01
	1.111239009305310e+01
	4.967514078082569e+01
	4.944901594678471e+01
	3.491801979086631e+01
	2.131356307976859e+01
	3.256087089699108e+01
	4.913019549340173e+01
	4.972422577769441e+01
	4.968334050563954e+01
	4.955838339981765e+01
	4.487935766677039e+01
	4.976249562017279e+01
	4.964785986350537e+01
	4.962883976388204e+01
	2.962070559983871e+01
	2.301001671028372e+01
	4.829793276456577e+01
	4.967385130156188e+01
	4.972080100610786e+01
	4.972031466118302e+01
	4.960296518660657e+01
	4.649544933793526e+01
	4.123809901295439e+01
	4.967060421843757e+01
	2.611248016813226e+01
	4.979869605012486e+01
	4.971611863424999e+01
	3.542137551629828e+01
	1.794526682155303e+01
	3.211265651791050e+01
	9.574806392589245e+00
	1.799786414108211e+01
	4.999362143673336e+01
	4.957297137359301e+01
	4.313403475924063e+01
	2.353108919649375e+01
	4.960997712567762e+01
	1.574049810422235e+01
	4.955505722060820e+01
	2.054004519331815e+01
	4.942401224423813e+01
	4.961163926840294e+01
	4.976114917343180e+01
	4.963703872104693e+01
	4.903886835257057e+01
	3.730890471781369e+01
	4.026611187378775e+01
	2.791851157319205e+01
	1.716578303169220e+01
	4.960813832286231e+01
	4.951891014931238e+01
	3.801677070495264e+01
	4.241752024319975e+01
	4.973241590789605e+01
	4.020081221535075e+01
	4.983666126856848e+01
	4.967023363618953e+01

 7	3.500000000000000e-01
	4.971275705108560e+01
	4.995906810014642e+01
	1.931075950249283e+01
	4.785320227128115e+01
	1.668218477829321e+01
	4.990728228258909e+01
	4.996268610730028e+01
	4.992110205778006e+01
	1.824541359207255e+01
	4.986502189519492e+01
	1.080906039742629e+01
	4.979147905580000e+01
	2.998035049843494e+01
	1.965344913018715e+01
	4.974154299897592e+01
	2.268349868230282e+01
	3.173037089234548e+01
	4.987352392424858e+01
	4.964690334198626e+01
	4.993264919377419e+01
	4.987848444878897e+01
	1.932901405921083e+01
	4.986748097420566e+01
	4.612922224671929e+01
	4.963056305161525e+01
	4.982817726184651e+01
	4.972347917847684e+01
	4.978095399203871e+01
	4.100118615473956e+01
	4.972692009327407e+01
	4.991949178742723e+01
	5.005864160778899e+01
	4.257230151476958e+01
	4.983545783018850e+01
	3.649010461897139e+01
	4.980781654372328e+01
	4.976809069689157e+01
	3.777731991154464e+01
	4.988905600923805e+01
	4.972851327123711e+01
	4.975215130894250e+01
	3.101658244074367e+01
	4.967191281521539e+01
	1.114439240393426e+01
	4.979550232886692e+01
	4.960738595153973e+01
	3.503686377422273e+01
	2.137863410609214e+01
	3.263517094317025e+01
	4.936144586837081e+01
	4.985852006581795e+01
	4.980885337634586e+01
	4.969295998702027e+01
	4.504562842573339e+01
	4.987807900000961e+01
	4.977937116475498e+01
	4.976051917390161e+01
	2.969169019660612e+01
	2.306018711133585e+01
	4.842555283922725e+01
	4.979601082956116e+01
	4.985122230614621e+01
	4.983236759037923e+01
	4.973262033105457e+01
	4.660785025705199e+01
	4.146595061862664e+01
	4.979810810910325e+01
	2.617475053909106e+01
	4.993482283718572e+01
	4.984817279722500e+01
	3.550553511430846e+01
	1.798611723474860e+01
	3.218687105335164e+01
	9.600439610853812e+00
	1.804639712863452e+01
	5.011198264090531e+01
	4.970672685000992e+01
	4.324053830711389e+01
	2.365022046404140e+01
	4.974628056217900e+01
	1.577555111563923e+01
	4.971520120578498e+01
	2.066928740785366e+01
	4.959433309759901e+01
	4.974465829488953e+01
	4.988730751354716e+01
	4.977773368078842e+01
	4.926713427482040e+01
	3.740390203530266e+01
	4.038221089491551e+01
	2.798943904471982e+01
	1.724001248360829e+01
	4.975508901874318e+01
	4.966338137630763e+01
	3.810211003308392e+01
	4.252811719806615e+01
	4.986060858372865e+01
	4.035194383360295e+01
	4.996011209207037e+01
	4.980896575879209e+01

 8	4.000000000000000e-01
	4.980109652723600e+01
	5.004110995171312e+01
	1.939878507558842e+01
	4.794873766272856e+01
	1.671595176812269e+01
	4.998981262234036e+01
	5.005123917678186e+01
	5.000574300735930e+01
	1.827978189161282e+01
	4.996062367647347e+01
	1.083060529970497e+01
	4.987823319059981e+01
	3.009019124285877e+01
	1.970371280158255e+01
	4.982803232486655e+01
	2.277706479458233e+01
	3.178248100272956e+01
	4.996146078328702e+01
	4.974243196801688e+01
	5.001408459883003e+01
	4.997337537576588e+01
	1.936490510363485e+01
	4.994549716540696e+01
	4.621993717391021e+01
	4.973028427309139e+01
	4.991196372423575e+01
	4.981735748112040e+01
	4.987033509577734e+01
	4.106799701893951e+01
	4.981789975270828e+01
	5.000368714426062e+01
	5.013683911274955e+01
	4.265288014332282e+01
	4.992148254038859e+01
	3.655324669645053e+01
	4.989391460886853e+01
	4.985568978230931e+01
	3.787003230576848e+01
	4.996925333518830e+01
	4.981607543817659e+01
	4.984559501503916e+01
	3.107415994348084e+01
	4.976873997591317e+01
	1.117051578451082e+01
	4.987972987643714e+01
	4.970871785510336e+01
	3.512231867048958e+01
	2.142887526242264e+01
	3.269151779452541e+01
	4.949803750368357e+01
	4.994891219306606e+01
	4.989551498583056e+01
	4.978415532561412e+01
	4.515868773069857e+01
	4.995876149912711e+01
	4.986878846587918e+01
	4.984978657198596e+01
	2.974590197999186e+01
	2.310036041403224e+01
	4.851410036714487e+01
	4.988032862507288e+01
	4.993985159221551e+01
	4.991022252099134e+01
	4.982106708923349e+01
	4.668783520224971e+01
	4.162444345217091e+01
	4.988574478848062e+01
	2.622311009963700e+01
	5.002595465243456e+01
	4.993746648470124e+01
	3.556822182630161e+01
	1.801933976042051e+01
	3.224297177159812e+01
	9.621704286571793e+00
	1.808489261826232e+01
	5.019294437973426e+01
	4.979742308294007e+01
	4.331688932531484e+01
	2.373948296362726e+01
	4.983769837038849e+01
	1.580446935486781e+01
	4.981681479430543e+01
	2.076654818581681e+01
	4.970127914218796e+01
	4.983499135177596e+01
	4.997419346255017e+01
	4.987102130994312e+01
	4.940913963862471e+01
	3.747320677612064e+01
	4.046459478364815e+01
	2.804336104309077e+01
	1.729703047069400e+01
	4.985108397078937e+01
	4.975876957654182e+01
	3.816566517972678e+01
	4.260656728642198e+01
	4.994880004637243e+01
	4.045704458457131e+01
	5.004538471338666e+01
	4.990137583854191e+01

 9	4.500000000000000e-01
	4.986876451742875e+01
	5.009917390301510e+01
	1.946720046058434e+01
	4.802187889973498e+01
	1.674470267189567e+01
	5.004908236021558e+01
	5.011820903550574e+01
	5.006778383581634e+01
	1.830880544470732e+01
	5.003279305570919e+01
	1.084873845830431e+01
	4.994431400699175e+01
	3.017483264365585e+01
	1.974463639039820e+01
	4.989395612148696e+01
	2.284982384343675e+01
	3.182325621554959e+01
	5.002768109897107e+01
	4.981505941777922e+01
	5.007138719508887e+01
	5.004485453610872e+01
	1.939512989942310e+01
	4.999833833402875e+01
	4.628979787657441e+01
	4.980515343481215e+01
	4.997407154065138e+01
	4.988903220318588e+01
	4.993812251054947e+01
	4.111778087022484e+01
	4.988776776456306e+01
	5.006541386413325e+01
	5.018900718884475e+01
	4.271581689622777e+01
	4.998610856603021e+01
	3.660252195736064e+01
	4.995879158067765e+01
	4.992276839788762e+01
	3.794183104689373e+01
	5.002508866885263e+01
	4.988309548620740e+01
	4.991657661537687e+01
	3.112041956306261e+01
	4.984189454735363e+01
	1.119271537239276e+01
	4.994281193408537e+01
	4.978445804745607e+01
	3.518904294406880e+01
	2.146983249555977e+01
	3.273652690115249e+01
	4.959396300537045e+01
	5.001744087123022e+01
	4.996120547811397e+01
	4.985432778553591e+01
	4.524401122562985e+01
	5.001540378061782e+01
	4.993697907039159e+01
	4.991747938031411e+01
	2.979002154837986e+01
	2.313397030562680e+01
	4.858229739480272e+01
	4.994272160020741e+01
	5.000684038149639e+01
	4.996304698026103e+01
	4.988812227403193e+01
	4.674905038655648e+01
	4.174304863976334e+01
	4.995245281449426e+01
	2.626326092148679e+01
	5.009489668325313e+01
	5.000492216721301e+01
	3.561841262847941e+01
	1.804726258310477e+01
	3.228746549425077e+01
	9.639764840950535e+00
	1.811719640253942e+01
	5.024845291443092e+01
	4.986705833757987e+01
	4.337619729260339e+01
	2.380897692205600e+01
	4.990707832073171e+01
	1.582876087704124e+01
	4.989218449086112e+01
	2.084178573520125e+01
	4.978005514585222e+01
	4.990428673544304e+01
	5.003964881147611e+01
	4.994170646698166e+01
	4.951125042612485e+01
	3.752850367150055e+01
	4.052898074191711e+01
	2.808774057369611e+01
	1.734255394801728e+01
	4.992339994447522e+01
	4.983116820869585e+01
	3.821531096189119e+01
	4.266828906917684e+01
	5.001598831617763e+01
	4.053731549869747e+01
	5.010836948985331e+01
	4.997144487950303e+01

 10	4.999999999999999e-01
	4.992146347852517e+01
	5.013442100301172e+01
	1.952141431339044e+01
	4.808110458938268e+01
	1.676963102800342e+01
	5.008661961989355e+01
	5.016814564890490e+01
	5.010976190851057e+01
	1.833271696983076e+01
	5.009112686274985e+01
	1.086240103547885e+01
	4.999377863973854e+01
	3.024221389306731e+01
	1.977906435060486e+01
	4.994345082275564e+01
	2.290792749599902e+01
	3.185123982615032e+01
	5.007688065172193e+01
	4.987448437855819e+01
	5.010544632044333e+01
	5.010219956446847e+01
	1.941985712864552e+01
	5.002495207640206e+01
	4.634599324010902e+01
	4.986629011098295e+01
	5.001636466193135e+01
	4.994747788952380e+01
	4.999045497747819e+01
	4.114983716879586e+01
	4.994394360233298e+01
	5.010678414887036e+01
	5.021420882184928e+01
	4.276643684867580e+01
	5.003267451863049e+01
	3.663854801528264e+01
	5.000600567501299e+01
	4.997416766110781e+01
	3.800033275867419e+01
	5.005674222180738e+01
	4.993465991222509e+01
	4.997375933485761e+01
	3.115715264629065e+01
	4.990142363117764e+01
	1.121182426803763e+01
	4.998706914048482e+01
	4.984630669118816e+01
	3.524365029126930e+01
	2.150412040176093e+01
	3.277057167387306e+01
	4.966888798855042e+01
	5.007084896364346e+01
	5.000996785419821e+01
	4.991102372085962e+01
	4.531225589443828e+01
	5.004808618529156e+01
	4.999020713954410e+01
	4.996969588776708e+01
	2.982572283308368e+01
	2.316086295485367e+01
	4.863581676033124e+01
	4.998599487948685e+01
	5.005757340283709e+01
	4.998896901859501e+01
	4.993930220959094e+01
	4.679348707523111e+01
	4.183575982106571e+01
	5.000313371009818e+01
	2.629704912073991e+01
	5.014870867746759e+01
	5.005640611629026e+01
	3.565819805956619e+01
	1.806950290510353e+01
	3.232061257025089e+01
	9.654425284798371e+00
	1.814505652552581e+01
	5.027953725618862e+01
	4.992292829783680e+01
	4.342144699769111e+01
	2.386443102773256e+01
	4.996187003569177e+01
	1.584752533808335e+01
	4.995316133414910e+01
	2.090106044610345e+01
	4.984378356226904e+01
	4.995951508471016e+01
	5.008739006887822e+01
	4.999828395333165e+01
	4.959128739972954e+01
	3.757380915991632e+01
	4.058148566960114e+01
	2.812562527421949e+01
	1.737987144718599e+01
	4.998178550337236e+01
	4.989003208665486e+01
	3.825125826593435e+01
	4.271856713881439e+01
	5.006699795126750e+01
	4.060207083234675e+01
	5.015165759807996e+01
	5.002719713129763e+01

 11	5.499999999999999e-01
	4.995845361067171e+01
	5.014656283544669e+01
	1.956480122366046e+01
	4.812860859214666e+01
	1.679043626621839e+01
	5.010098126419682e+01
	5.019956904818315e+01
	5.012903985787904e+01
	1.834959398307071e+01
	5.013798584122464e+01
	1.086877996843061e+01
	5.002483663058466e+01
	3.029697135833813e+01
	1.980838163416769e+01
	4.997477486259232e+01
	2.295524967539739e+01
	3.186267013676472e+01
	5.010779322863173e+01
	4.992371649149580e+01
	5.011657282685876e+01
	5.014743721895771e+01
	1.943698844223725e+01
	5.003190818058398e+01
	4.638968863540042e+01
	4.991783716561593e+01
	5.003565311795526e+01
	4.999491681412530e+01
	5.002687990189884e+01
	4.116166478793451e+01
	4.998697851411892e+01
	5.012509507353101e+01
	5.022052301130345e+01
	4.280464482343316e+01
	5.005952126457326e+01
	3.665897335227450e+01
	5.003386168460952e+01
	5.000847638013189e+01
	3.804902018860910e+01
	5.006601129164034e+01
	4.996956647688024e+01
	5.001881864115376e+01
	3.118268130799325e+01
	4.995051132101027e+01
	1.122757302052078e+01
	5.000900841798121e+01
	4.989883580215344e+01
	3.528915574830486e+01
	2.153250773912667e+01
	3.279096528039098e+01
	4.973137076591245e+01
	5.010909619691979e+01
	5.004012462741928e+01
	4.995500595274705e+01