Title: monte carlo simulation plot
Date: Sun Nov 28 21:56:36  2021
Plotname: monte_carlo
Flags: real
No. Variables: 101
No. Points: 27
Variables:
	0	voltage_sweep	voltage
	1	output_current_0	notype
	2	output_current_1	notype
	3	output_current_2	notype
	4	output_current_3	notype
	5	output_current_4	notype
	6	output_current_5	notype
	7	output_current_6	notype
	8	output_current_7	notype
	9	output_current_8	notype
	10	output_current_9	notype
	11	output_current_10	notype
	12	output_current_11	notype
	13	output_current_12	notype
	14	output_current_13	notype
	15	output_current_14	notype
	16	output_current_15	notype
	17	output_current_16	notype
	18	output_current_17	notype
	19	output_current_18	notype
	20	output_current_19	notype
	21	output_current_20	notype
	22	output_current_21	notype
	23	output_current_22	notype
	24	output_current_23	notype
	25	output_current_24	notype
	26	output_current_25	notype
	27	output_current_26	notype
	28	output_current_27	notype
	29	output_current_28	notype
	30	output_current_29	notype
	31	output_current_30	notype
	32	output_current_31	notype
	33	output_current_32	notype
	34	output_current_33	notype
	35	output_current_34	notype
	36	output_current_35	notype
	37	output_current_36	notype
	38	output_current_37	notype
	39	output_current_38	notype
	40	output_current_39	notype
	41	output_current_40	notype
	42	output_current_41	notype
	43	output_current_42	notype
	44	output_current_43	notype
	45	output_current_44	notype
	46	output_current_45	notype
	47	output_current_46	notype
	48	output_current_47	notype
	49	output_current_48	notype
	50	output_current_49	notype
	51	output_current_50	notype
	52	output_current_51	notype
	53	output_current_52	notype
	54	output_current_53	notype
	55	output_current_54	notype
	56	output_current_55	notype
	57	output_current_56	notype
	58	output_current_57	notype
	59	output_current_58	notype
	60	output_current_59	notype
	61	output_current_60	notype
	62	output_current_61	notype
	63	output_current_62	notype
	64	output_current_63	notype
	65	output_current_64	notype
	66	output_current_65	notype
	67	output_current_66	notype
	68	output_current_67	notype
	69	output_current_68	notype
	70	output_current_69	notype
	71	output_current_70	notype
	72	output_current_71	notype
	73	output_current_72	notype
	74	output_current_73	notype
	75	output_current_74	notype
	76	output_current_75	notype
	77	output_current_76	notype
	78	output_current_77	notype
	79	output_current_78	notype
	80	output_current_79	notype
	81	output_current_80	notype
	82	output_current_81	notype
	83	output_current_82	notype
	84	output_current_83	notype
	85	output_current_84	notype
	86	output_current_85	notype
	87	output_current_86	notype
	88	output_current_87	notype
	89	output_current_88	notype
	90	output_current_89	notype
	91	output_current_90	notype
	92	output_current_91	notype
	93	output_current_92	notype
	94	output_current_93	notype
	95	output_current_94	notype
	96	output_current_95	notype
	97	output_current_96	notype
	98	output_current_97	notype
	99	output_current_98	notype
	100	output_current_99	notype
Values:
 0	0.000000000000000e+00
	-6.249681307191351e-02
	-5.256667537381203e-02
	-8.062531465230094e-02
	-6.422489788059250e-02
	-6.731708431133133e-02
	-5.578508494174297e-02
	-4.669821299897810e-02
	-5.362796303951044e-02
	-6.723032093647430e-02
	-5.397954532164278e-02
	-6.725965628272544e-02
	-5.581302949060581e-02
	-7.766252175573533e-02
	-7.283821700967832e-02
	-6.052668527506559e-02
	-7.804175555124739e-02
	-5.569028069752546e-02
	-5.585659586886967e-02
	-6.246636257685553e-02
	-5.338779944234863e-02
	-6.260093761314238e-02
	-6.678678792470788e-02
	-5.801325689898083e-02
	-6.625738366757551e-02
	-6.567270000014995e-02
	-5.287639815316425e-02
	-5.908119887082340e-02
	-6.176637244815636e-02
	-5.881666063660219e-02
	-5.823443546140034e-02
	-5.238724609441795e-02
	-5.302926178744714e-02
	-6.595718972320187e-02
	-5.737122343798155e-02
	-6.603969611395169e-02
	-5.885688410873532e-02
	-5.615719381032225e-02
	-7.198296001298798e-02
	-4.968261962762715e-02
	-6.073445544851618e-02
	-6.208186184277118e-02
	-6.929473506719722e-02
	-6.584728254355769e-02
	-7.121183810741422e-02
	-5.593858854187143e-02
	-6.505628839398107e-02
	-7.221217234760369e-02
	-7.320095392385316e-02
	-6.490827496279837e-02
	-7.032169753953249e-02
	-6.068659592929776e-02
	-5.698155443742520e-02
	-5.739289334350645e-02
	-7.227777027571851e-02
	-4.796921956565024e-02
	-6.026342338084241e-02
	-6.354606936487338e-02
	-6.746589956351677e-02
	-6.094015877638177e-02
	-6.045305876858226e-02
	-6.124200798174504e-02
	-5.802762434537516e-02
	-5.130231299073521e-02
	-6.651868248613250e-02
	-5.103705407988119e-02
	-7.697283605942205e-02
	-5.781531148109437e-02
	-6.554621505279368e-02
	-5.769239604892530e-02
	-5.754008999745377e-02
	-6.417787051035560e-02
	-6.658000389866735e-02
	-6.673560267870764e-02
	-7.051136509486686e-02
	-6.900688429101577e-02
	-4.897072605445298e-02
	-5.998336726214722e-02
	-6.313889455567454e-02
	-7.920682853675723e-02
	-6.491885823126844e-02
	-6.484478095770169e-02
	-6.551069363440896e-02
	-8.131093692593790e-02
	-6.833534622324490e-02
	-5.764201685725941e-02
	-5.220523424333164e-02
	-6.296900495078496e-02
	-7.805319624632813e-02
	-6.491761872334990e-02
	-6.898562925047813e-02
	-6.474894657887936e-02
	-7.692001461384752e-02
	-6.440794634144975e-02
	-6.602333072810276e-02
	-5.586904928589721e-02
	-6.103802159329489e-02
	-5.099176698144783e-02
	-7.215113775901608e-02
	-4.928002021273726e-02
	-6.285332893379759e-02

 1	5.000000000000000e-02
	2.488366826990638e+01
	2.524437846366839e+01
	2.453354384160015e+01
	2.466811976295155e+01
	2.494155831321782e+01
	2.518936920330953e+01
	2.497654299551077e+01
	2.511333558615327e+01
	2.518214652571388e+01
	2.460828972228779e+01
	2.565463377335536e+01
	2.500288775216040e+01
	2.439116799608895e+01
	2.462363329735502e+01
	2.499432152622315e+01
	2.436431136927962e+01
	2.543534127598336e+01
	2.493161494186182e+01
	2.457597341762422e+01
	2.528906887066596e+01
	2.453289626309571e+01
	2.519861516220181e+01
	2.539893845228337e+01
	2.472976736109657e+01
	2.446203507373959e+01
	2.519504193918660e+01
	2.464006449816986e+01
	2.483615491502740e+01
	2.535381129250690e+01
	2.476554743119835e+01
	2.515767649594969e+01
	2.534146729579365e+01
	2.480566890307153e+01
	2.502356373900903e+01
	2.513195655273217e+01
	2.501135638769379e+01
	2.495773098454995e+01
	2.449675869267768e+01
	2.540677323037161e+01
	2.493048315603779e+01
	2.465521389517729e+01
	2.500322039694386e+01
	2.454666735847693e+01
	2.504965960487503e+01
	2.515945245380692e+01
	2.441979534096531e+01
	2.451294136873012e+01
	2.474537494817083e+01
	2.515051599749955e+01
	2.404455857933619e+01
	2.474978229010446e+01
	2.498689685540283e+01
	2.477206437233629e+01
	2.447577600838584e+01
	2.542009940362428e+01
	2.483104036683542e+01
	2.483077704851152e+01
	2.499906897500946e+01
	2.523329762338215e+01
	2.490190869094402e+01
	2.509151004511962e+01
	2.487998040555969e+01
	2.555147151388183e+01
	2.485593540176272e+01
	2.517142471795974e+01
	2.428237731393512e+01
	2.492890529482024e+01
	2.493345193876461e+01
	2.471739252333030e+01
	2.484854360941416e+01
	2.500202845750197e+01
	2.528928717894833e+01
	2.515286848766608e+01
	2.544229745337343e+01
	2.479730260342616e+01
	2.527684898236138e+01
	2.477064174621175e+01
	2.501171426454760e+01
	2.453354850555568e+01
	2.472729333887960e+01
	2.544540685209349e+01
	2.441756365391130e+01
	2.454338288360283e+01
	2.433419245875877e+01
	2.479406614986956e+01
	2.500597646009847e+01
	2.465614939714121e+01
	2.415497886700630e+01
	2.482575854671483e+01
	2.469308662253695e+01
	2.473950710963669e+01
	2.459836283942579e+01
	2.455822155272120e+01
	2.459157688935196e+01
	2.525844932806803e+01
	2.480898506859020e+01
	2.495381237032897e+01
	2.442754904633080e+01
	2.512687764264182e+01
	2.466847044332659e+01

 2	1.000000000000000e-01
	4.007952411877154e+01
	4.044567588145362e+01
	3.971693385384687e+01
	3.986017614590511e+01
	4.012774131632922e+01
	4.038959215046337e+01
	4.018653145311047e+01
	4.031656771823796e+01
	4.036690972046434e+01
	3.981179748301957e+01
	4.081847598129688e+01
	4.020199745826119e+01
	3.957158316300504e+01
	3.980763035181251e+01
	4.019029843573333e+01
	3.954153437806386e+01
	4.061810728105619e+01
	4.013526398605064e+01
	3.976787506441602e+01
	4.048753838800114e+01
	3.973366541900833e+01
	4.038322455398040e+01
	4.058979724727140e+01
	3.992269559645670e+01
	3.965151457461342e+01
	4.039265188324952e+01
	3.983650266831356e+01
	4.003568830279790e+01
	4.054118286854068e+01
	3.996298538496215e+01
	4.036010567190561e+01
	4.054189893877894e+01
	3.999904364927493e+01
	4.022397258303780e+01
	4.032325723047877e+01
	4.021052161155890e+01
	4.015626885857653e+01
	3.968195050750784e+01
	4.060087740385217e+01
	4.012677732240569e+01
	3.985305766877347e+01
	4.019445072292330e+01
	3.973966992147290e+01
	4.023302861542002e+01
	4.035535493731538e+01
	3.960727914100413e+01
	3.969849357912268e+01
	3.993319396496792e+01
	4.034031549692441e+01
	3.921062494289303e+01
	3.995227186293408e+01
	4.018697830469138e+01
	3.996794179503835e+01
	3.966243633831031e+01
	4.061389536400310e+01
	4.003048401422956e+01
	4.002940952566102e+01
	4.018965789552077e+01
	4.041899788854563e+01
	4.009680422155978e+01
	4.028867560027589e+01
	4.008262495103330e+01
	4.073533436421521e+01
	4.005337032291260e+01
	4.036673888522439e+01
	3.945998524733244e+01
	4.012901412014295e+01
	4.012305803378371e+01
	3.992286930858309e+01
	4.005160210323385e+01
	4.019430922278465e+01
	4.047160044268845e+01
	4.034291124599886e+01
	4.061589165946656e+01
	3.998367572560801e+01
	4.048266953832571e+01
	3.996690108491459e+01
	4.020553769525797e+01
	3.971803765761097e+01
	3.992540388569920e+01
	4.062185327470048e+01
	3.961047125886562e+01
	3.972767962739357e+01
	3.951977697428028e+01
	3.999250444254392e+01
	4.021044114395085e+01
	3.985492482263977e+01
	3.932874591241445e+01
	4.001819659933139e+01
	3.988427633953015e+01
	3.992821815717370e+01
	3.978154607766845e+01
	3.975511803483618e+01
	3.978473431458642e+01
	4.044840143557066e+01
	4.000255239897284e+01
	4.015830592874055e+01
	3.961110189157509e+01
	4.033280830050197e+01
	3.986856068792586e+01

 3	1.500000000000000e-01
	4.678898372378068e+01
	4.697856917724010e+01
	4.659345577753089e+01
	4.668130074588872e+01
	4.678928041121832e+01
	4.694756134857991e+01
	4.687369298018583e+01
	4.691912751075443e+01
	4.690103597125984e+01
	4.668916520182784e+01
	4.709144425262815e+01
	4.685531145857437e+01
	4.652619514181663e+01
	4.663713335131348e+01
	4.684180838507323e+01
	4.650610195973772e+01
	4.702694786570382e+01
	4.683376186427309e+01
	4.664104235334527e+01
	4.699366885940228e+01
	4.664716749780049e+01
	4.690910135014869e+01
	4.702789217088214e+01
	4.671011837536132e+01
	4.658511389739545e+01
	4.694443160553770e+01
	4.668253222697553e+01
	4.677726122764283e+01
	4.699588221671676e+01
	4.674066517170719e+01
	4.693900754471004e+01
	4.702492606606877e+01
	4.674535377259949e+01
	4.686809238536762e+01
	4.689383455153758e+01
	4.685855938987610e+01
	4.683257905161646e+01
	4.658609022992069e+01
	4.704192743015096e+01
	4.681232878565216e+01
	4.669167088887762e+01
	4.683090215474445e+01
	4.663048922288614e+01
	4.683165854789807e+01
	4.692226230547185e+01
	4.656207829350904e+01
	4.659337347401163e+01
	4.670057784290503e+01
	4.689928925023204e+01
	4.635254582948919e+01
	4.674688828988768e+01
	4.684952484949900e+01
	4.673998050388865e+01
	4.658051586063421e+01
	4.704872995278880e+01
	4.677517717907413e+01
	4.677184440010510e+01
	4.682777291373989e+01
	4.693053685702860e+01
	4.679612018103656e+01
	4.689067297331288e+01
	4.680673498520848e+01
	4.709073033539856e+01
	4.677950836213998e+01
	4.692758320696752e+01
	4.647458586041109e+01
	4.682230658299876e+01
	4.679490493652021e+01
	4.674118659497525e+01
	4.679309933164626e+01
	4.683422092321261e+01
	4.694808557178859e+01
	4.690032321044723e+01
	4.700265154734297e+01
	4.672216706656904e+01
	4.700712887197294e+01
	4.673910904966043e+01
	4.684337579161308e+01
	4.659697523554606e+01
	4.672332839304629e+01
	4.701296912214530e+01
	4.657584566538264e+01
	4.660048541781894e+01
	4.652082139425186e+01
	4.675622168842740e+01
	4.687140816512343e+01
	4.669474556413333e+01
	4.641312455273871e+01
	4.675235762901641e+01
	4.668817231661803e+01
	4.670406448194545e+01
	4.662229617444138e+01
	4.664654004053205e+01
	4.665010255071344e+01
	4.695556805360611e+01
	4.674922125575527e+01
	4.684759454958105e+01
	4.655197647186835e+01
	4.693385527153272e+01
	4.670371477966768e+01

 4	2.000000000000000e-01
	4.876882764902486e+01
	4.885673315998488e+01
	4.867707414866833e+01
	4.872829840767687e+01
	4.874251535503865e+01
	4.883998717392871e+01
	4.883768114462522e+01
	4.883605983227284e+01
	4.878247368973418e+01
	4.876861104251306e+01
	4.883606990758322e+01
	4.880162147100270e+01
	4.865886051283984e+01
	4.869083459662325e+01
	4.878786615625870e+01
	4.864541816217258e+01
	4.883955810733764e+01
	4.880592284911469e+01
	4.871976633734191e+01
	4.885747991632502e+01
	4.875057580774281e+01
	4.878598360085352e+01
	4.885590530978720e+01
	4.873687508752563e+01
	4.870231343083345e+01
	4.883319064232362e+01
	4.874382900754856e+01
	4.877571181608918e+01
	4.883300841820414e+01
	4.876027552997396e+01
	4.884257759873805e+01
	4.887607284560498e+01
	4.874744684013523e+01
	4.880926969630406e+01
	4.879502916156327e+01
	4.880222270384422e+01
	4.879222417341874e+01
	4.868584341683911e+01
	4.887027278205098e+01
	4.877798652626591e+01
	4.874865510743937e+01
	4.876968164211899e+01
	4.872056093123303e+01
	4.874959496715850e+01
	4.881996045811546e+01
	4.869280745138627e+01
	4.868724677890303e+01
	4.871639466937322e+01
	4.879395312573360e+01
	4.860945963494471e+01
	4.877676334336675e+01
	4.880116127567641e+01
	4.875626007965189e+01
	4.868886619430646e+01
	4.887361779730404e+01
	4.877529169700144e+01
	4.877108046933169e+01
	4.876730472801660e+01
	4.879877043684569e+01
	4.876993787948907e+01
	4.880856089480262e+01
	4.879423603562855e+01
	4.887476182359311e+01
	4.876961505009781e+01
	4.882129130878883e+01
	4.864618364901793e+01
	4.879184354730499e+01
	4.875364957371156e+01
	4.878479292361442e+01
	4.879068767169427e+01
	4.877422672443688e+01
	4.879808724438995e+01
	4.879430360706853e+01
	4.880573385709712e+01
	4.872047739386004e+01
	4.887998637486844e+01
	4.875571197040813e+01
	4.878201625979411e+01
	4.868185365579174e+01
	4.875592757079723e+01
	4.881752703780754e+01
	4.871298610401682e+01
	4.868191308754358e+01
	4.868191648418505e+01
	4.876732509010014e+01
	4.882129114002669e+01
	4.875259549619857e+01
	4.863130892599713e+01
	4.874719362563031e+01
	4.872530821719689e+01
	4.872402763849586e+01
	4.868339773747956e+01
	4.873655264183091e+01
	4.872436730149585e+01
	4.882061218583131e+01
	4.875096032138076e+01
	4.881371196372299e+01
	4.867499394294430e+01
	4.884923854356544e+01
	4.875861274944546e+01

 5	2.500000000000000e-01
	4.934305253038919e+01
	4.940328337974302e+01
	4.928104401723537e+01
	4.932090082633177e+01
	4.930983654379928e+01
	4.939050350282977e+01
	4.940661224084493e+01
	4.939290595829069e+01
	4.933076125262625e+01
	4.936954600365750e+01
	4.934896824815228e+01
	4.936636612916725e+01
	4.927629074954098e+01
	4.928586802167108e+01
	4.935287501730070e+01
	4.926470865412457e+01
	4.936907970047718e+01
	4.937768045271390e+01
	4.932099262187819e+01
	4.940031204291625e+01
	4.935891002868066e+01
	4.933304617983462e+01
	4.938971165106506e+01
	4.932410190339534e+01
	4.931453093290415e+01
	4.938245325071663e+01
	4.934002868168500e+01
	4.935498230177848e+01
	4.936915029910569e+01
	4.934496341738645e+01
	4.939578651705140e+01
	4.941564510962471e+01
	4.932792914201425e+01
	4.937280167459910e+01
	4.934852449587843e+01
	4.936651407908910e+01
	4.936055294060761e+01
	4.929362446494780e+01
	4.940354033855228e+01
	4.934825629537821e+01
	4.934393514345668e+01
	4.933339386045525e+01
	4.932525537605409e+01
	4.930778848999525e+01
	4.937179394325737e+01
	4.930875134055560e+01
	4.929339872905449e+01
	4.930111212581608e+01
	4.934560724498402e+01
	4.926188217807353e+01
	4.936458032484795e+01
	4.936743260579041e+01
	4.933995197559798e+01
	4.929909662539805e+01
	4.940586559261709e+01
	4.935488386419921e+01
	4.935069665309793e+01
	4.933104910246895e+01
	4.934311656884581e+01
	4.934236696828494e+01
	4.936616970838701e+01
	4.937029248278427e+01
	4.939666841707403e+01
	4.934699567827900e+01
	4.937167273445916e+01
	4.927459261442452e+01
	4.936298131267788e+01
	4.932235128884466e+01
	4.937618488777464e+01
	4.936943060660404e+01
	4.933784728026482e+01
	4.933809437616846e+01
	4.934593295966884e+01
	4.933384485973180e+01
	4.930007393539292e+01
	4.942495755888543e+01
	4.933969886669240e+01
	4.934522027193145e+01
	4.928607460325733e+01
	4.934474765443770e+01
	4.934559821687893e+01
	4.933088862985676e+01
	4.928536109202568e+01
	4.930673242022803e+01
	4.934965978717733e+01
	4.938678728442494e+01
	4.934822036385222e+01
	4.927318390935179e+01
	4.932560458658221e+01
	4.931557605149933e+01
	4.930921381113220e+01
	4.928079863699602e+01
	4.934119146511075e+01
	4.932467680524260e+01
	4.936379731420877e+01
	4.933095032568207e+01
	4.938345883758128e+01
	4.928928820794459e+01
	4.940537312339913e+01
	4.935344314695340e+01

 6	3.000000000000000e-01
	4.957688949133775e+01
	4.962934548967684e+01
	4.952365449383141e+01
	4.955974481870868e+01
	4.954198388617604e+01
	4.961773666501486e+01
	4.963848944409882e+01
	4.962176560980723e+01
	4.955778752345854e+01
	4.961027599630682e+01
	4.956646599713564e+01
	4.959740430280517e+01
	4.952239043096120e+01
	4.952570983873393e+01
	4.958415984634913e+01
	4.951131340897815e+01
	4.959062623372326e+01
	4.961062785590990e+01
	4.956208357171440e+01
	4.962540362580159e+01
	4.960199826408622e+01
	4.955972922241164e+01
	4.961252707926639e+01
	4.956158518003122e+01
	4.955872396163164e+01
	4.960922199527366e+01
	4.957965016932778e+01
	4.959016925479894e+01
	4.959259818524981e+01
	4.958144553733135e+01
	4.962362403487342e+01
	4.963986947629346e+01
	4.956358024142379e+01
	4.960358594532335e+01
	4.957692912887211e+01
	4.959755373680963e+01
	4.959256448710029e+01
	4.953688051362944e+01
	4.962590689468454e+01
	4.958095802673913e+01
	4.958343883228839e+01
	4.956467960660341e+01
	4.956744017083981e+01
	4.953763422400718e+01
	4.959936719350455e+01
	4.955391296541912e+01
	4.953621777379312e+01
	4.953819122674387e+01
	4.957346186904737e+01
	4.951709133583929e+01
	4.960204960593150e+01
	4.959892453554608e+01
	4.957612879305301e+01
	4.954302715057366e+01
	4.962790616399845e+01
	4.959009329601476e+01
	4.958604708897737e+01
	4.956225918707996e+01
	4.956883030749100e+01
	4.957564196598953e+01
	4.959550290979447e+01
	4.960447878536701e+01
	4.961602687190525e+01
	4.958187134547227e+01
	4.959866212136347e+01
	4.952362980249259e+01
	4.959581434108647e+01
	4.955480587986636e+01
	4.961451003438442e+01
	4.960431393550429e+01
	4.956888475201757e+01
	4.956286471750719e+01
	4.957385713032333e+01
	4.955556476898934e+01
	4.953558938496668e+01
	4.965049553466716e+01
	4.957605512618006e+01
	4.957611417470958e+01
	4.952869228832245e+01
	4.958263385778467e+01
	4.956707859172963e+01
	4.957663479632939e+01
	4.952787625156605e+01
	4.955443995664647e+01
	4.958548714611576e+01
	4.961791097504633e+01
	4.958786855090310e+01
	4.952591486853371e+01
	4.956064817355468e+01
	4.955398951090911e+01
	4.954606863147152e+01
	4.952145930380664e+01
	4.958332391264970e+01
	4.956568352888877e+01
	4.958902438322488e+01
	4.956626548457206e+01
	4.961567957647369e+01
	4.953429951550740e+01
	4.963389544280312e+01
	4.959288105267309e+01

 7	3.500000000000000e-01
	4.970771108750004e+01
	4.975759677902278e+01
	4.965757604797368e+01
	4.969218351031463e+01
	4.967236520894052e+01
	4.974637997216336e+01
	4.976852017508286e+01
	4.975090186831884e+01
	4.968653709243537e+01
	4.974316107573206e+01
	4.969221435855592e+01
	4.972725986537429e+01
	4.965735847999031e+01
	4.965861629511841e+01
	4.971415474481480e+01
	4.964645142858568e+01
	4.971750632928092e+01
	4.974107822347420e+01
	4.969519818323197e+01
	4.975336746410952e+01
	4.973573970050590e+01
	4.968836899811395e+01
	4.973980981592985e+01
	4.969361837436404e+01
	4.969287193708205e+01
	4.973769724501759e+01
	4.971225874569668e+01
	4.972140373519238e+01
	4.972009809839991e+01
	4.971304365742778e+01
	4.975243242904040e+01
	4.976754919469801e+01
	4.969502286681693e+01
	4.973337689618174e+01
	4.970608825070324e+01
	4.972744234289306e+01
	4.972273374820248e+01
	4.967085093083288e+01
	4.975296812688348e+01
	4.971139560378391e+01
	4.971604088119274e+01
	4.969480436572298e+01
	4.970095261079251e+01
	4.966734177037327e+01
	4.972813907727723e+01
	4.968835470418160e+01
	4.967004163833008e+01
	4.967020466909171e+01
	4.970243347289429e+01
	4.965482266227239e+01
	4.973399333591151e+01
	4.972892355296866e+01
	4.970762882533812e+01
	4.967719845965358e+01
	4.975486473804717e+01
	4.972131667754787e+01
	4.971735789486642e+01
	4.969233349913960e+01
	4.969707529690892e+01
	4.970627593872180e+01
	4.972487732538846e+01
	4.973534743227259e+01
	4.974216692277874e+01
	4.971308108967821e+01
	4.972719602199319e+01
	4.965952202137629e+01
	4.972624788357363e+01
	4.968524876849587e+01
	4.974667852909492e+01
	4.973538609759571e+01
	4.969884429562315e+01
	4.969088767424251e+01
	4.970287015228984e+01
	4.968268261995286e+01
	4.966705283522186e+01
	4.977855084483621e+01
	4.970763309624553e+01
	4.970601660977221e+01
	4.966258666434754e+01
	4.971476464641690e+01
	4.969403257949474e+01
	4.971125914683791e+01
	4.966179089640229e+01
	4.968974513391476e+01
	4.971686728367066e+01
	4.974774391120862e+01
	4.972053571000549e+01
	4.966299706118254e+01
	4.969188486954670e+01
	4.968636095392881e+01
	4.967789558930186e+01
	4.965469622888715e+01
	4.971679217129579e+01
	4.969882579275442e+01
	4.971705795222170e+01
	4.969753854300275e+01
	4.974585299777345e+01
	4.966881779706780e+01
	4.976289056798748e+01
	4.972547727508862e+01

 8	4.000000000000000e-01
	4.979754544162532e+01
	4.984661823239983e+01
	4.974846710602970e+01
	4.978258396312152e+01
	4.976208368518667e+01
	4.983548944195574e+01
	4.985820066471884e+01
	4.984020108594758e+01
	4.977567834544465e+01
	4.983372865082847e+01
	4.978036281561406e+01
	4.981681338619460e+01
	4.974861289624251e+01
	4.974918261042458e+01
	4.980372900620345e+01
	4.973777739127679e+01
	4.980610713649900e+01
	4.983080402656891e+01
	4.978582553778906e+01
	4.984230393011591e+01
	4.982652193501083e+01
	4.977748235583928e+01
	4.982846145908776e+01
	4.978385798548481e+01
	4.978384230187221e+01
	4.982680849921570e+01
	4.980273111150711e+01
	4.981136333040144e+01
	4.980884811289039e+01
	4.980316737262960e+01
	4.984164655672820e+01
	4.985636574710885e+01
	4.978505199716384e+01
	4.982288233779889e+01
	4.979534291202152e+01
	4.981697074434672e+01
	4.981239721860782e+01
	4.976177323539601e+01
	4.984164008569746e+01
	4.980110856742819e+01
	4.980646728965392e+01
	4.978438363872624e+01
	4.979169085843836e+01
	4.975680669113032e+01
	4.981733973872799e+01
	4.977942918886436e+01
	4.976089508569527e+01
	4.976041790415815e+01
	4.979164120103561e+01
	4.974707668643427e+01
	4.982419117798291e+01
	4.981849155289613e+01
	4.979774427115260e+01
	4.976815622882952e+01
	4.984354508212369e+01
	4.981128890962352e+01
	4.980733306036728e+01
	4.978191203375607e+01
	4.978607988424918e+01
	4.979609053855794e+01
	4.981420422785101e+01
	4.982519996923939e+01
	4.983054248921442e+01
	4.980301260007523e+01
	4.981636742229577e+01
	4.975110653885586e+01
	4.981595833220215e+01
	4.977497548745084e+01
	4.983695448957238e+01
	4.982529617823979e+01
	4.978838196097353e+01
	4.977977959770975e+01
	4.979206733310838e+01
	4.977125515098638e+01
	4.975712009063350e+01
	4.986753277372627e+01
	4.979773554583352e+01
	4.979554011080725e+01
	4.975346242736575e+01
	4.980500829265409e+01
	4.978256976703038e+01
	4.980235520635635e+01
	4.975268970189772e+01
	4.978110734061626e+01
	4.980691347545338e+01
	4.983729315414186e+01
	4.981098233269432e+01
	4.975498949691534e+01
	4.978185617466398e+01
	4.977670926664570e+01
	4.976810904624746e+01
	4.974536567198717e+01
	4.980749756018643e+01
	4.978943790943870e+01
	4.980602670213280e+01
	4.978755255176230e+01
	4.983554288474413e+01
	4.975991402249541e+01
	4.985219546013871e+01
	4.981588968330699e+01

 9	4.500000000000000e-01
	4.986619308844907e+01
	4.991522923580914e+01
	4.981713352225658e+01
	4.985143158543542e+01
	4.983066505786799e+01
	4.990400603337532e+01
	4.992724041014661e+01
	4.990886241425089e+01
	4.984400723115259e+01
	4.990282765017528e+01
	4.984834957277276e+01
	4.988555790705448e+01
	4.981748224805460e+01
	4.981793814492520e+01
	4.987235267858323e+01
	4.980669172193549e+01
	4.987460137653526e+01
	4.989955044345986e+01
	4.985478154212117e+01
	4.991089064141718e+01
	4.989539791367325e+01
	4.984582370938951e+01
	4.989677383290922e+01
	4.985256960770624e+01
	4.985283814082754e+01
	4.989548567726673e+01
	4.987171730401626e+01
	4.988003505236181e+01
	4.987723737951582e+01
	4.987204086315212e+01
	4.991034211779028e+01
	4.992486267105483e+01
	4.985367956687986e+01
	4.989153155729345e+01
	4.986368312805286e+01
	4.988558642257993e+01
	4.988118267757976e+01
	4.983065373892221e+01
	4.991026948306500e+01
	4.986976137127106e+01
	4.987530366220975e+01
	4.985277467231650e+01
	4.986057177069512e+01
	4.982517791953899e+01
	4.988597738302450e+01
	4.984848310546266e+01
	4.982971758394142e+01
	4.982895672902828e+01
	4.986001850671058e+01
	4.981653322944503e+01
	4.989295230502277e+01
	4.988716252405886e+01
	4.986667435666922e+01
	4.983698617938548e+01
	4.991227591609275e+01
	4.988002303965914e+01
	4.987595938869783e+01
	4.985037095686933e+01
	4.985453859740041e+01
	4.986484347204801e+01
	4.988265627357672e+01
	4.989392707903297e+01
	4.989906174772234e+01
	4.987154746163825e+01
	4.988517192230923e+01
	4.982012685237291e+01
	4.988465700087237e+01
	4.984356958666553e+01
	4.990579575327170e+01
	4.989403560450717e+01
	4.985688893629332e+01
	4.984802286847005e+01
	4.986036160889310e+01
	4.983927792636929e+01
	4.982576372880143e+01
	4.993622279446386e+01
	4.986654742557295e+01
	4.986406658453188e+01
	4.982214179304881e+01
	4.987368535914680e+01
	4.985072757989037e+01
	4.987132414886633e+01
	4.982135602046075e+01
	4.985018003012356e+01
	4.987576380238549e+01
	4.990609722676023e+01
	4.987979953103975e+01
	4.982412622684686e+01
	4.985050685115669e+01
	4.984539612064601e+01
	4.983692185616491e+01
	4.981405692332459e+01
	4.987635507908281e+01
	4.985827289381329e+01
	4.987461822200451e+01
	4.985634233137942e+01
	4.990446138596169e+01
	4.982883245574672e+01
	4.992101901221181e+01
	4.988467619760121e+01

 10	4.999999999999999e-01
	4.991949173588264e+01
	4.996893058736179e+01
	4.986967191447395e+01
	4.990486437406400e+01
	4.988380477417094e+01
	4.995743535316291e+01
	4.998163411299036e+01
	4.996254411636879e+01
	4.989686307827195e+01
	4.995684437432651e+01
	4.990086209101367e+01
	4.993928187518328e+01
	4.987032875355794e+01
	4.987096263401225e+01
	4.992574298075866e+01
	4.985959689131261e+01
	4.992819958333865e+01
	4.995319361812169e+01
	4.990836567010713e+01
	4.996456050078456e+01
	4.994870485983876e+01
	4.989872082052755e+01
	4.994992528834766e+01
	4.990575892342903e+01
	4.990628368260340e+01
	4.994930125628107e+01
	4.992548006185630e+01
	4.993333033836902e+01
	4.993050948022700e+01
	4.992574959069077e+01
	4.996414701675673e+01
	4.997838956986725e+01
	4.990679777019968e+01
	4.994504738603566e+01
	4.991652566629218e+01
	4.993900218898254e+01
	4.993493989488367e+01
	4.988377759790894e+01
	4.996420319267384e+01
	4.992315400420739e+01
	4.992872619737532e+01
	4.990552956231256e+01
	4.991388152316843e+01
	4.987792266443535e+01
	4.993962353035195e+01
	4.990201450859994e+01
	4.988275604115818e+01
	4.988168947433547e+01
	4.991298148690124e+01
	4.987022977787743e+01
	4.994633037610368e+01
	4.994071279163566e+01
	4.992051852714956e+01
	4.988998599768910e+01
	4.996643495065040e+01
	4.993346852193343e+01
	4.992912453492468e+01
	4.990330430068546e+01
	4.990783151201254e+01
	4.991839850324216e+01
	4.993578045712718e+01
	4.994744011691053e+01
	4.995285695446000e+01
	4.992448699944979e+01
	4.993926128093877e+01
	4.987313393180725e+01
	4.993818921145349e+01
	4.989675968574802e+01
	4.995934828039793e+01
	4.994756249477217e+01
	4.991000274291897e+01
	4.990081270421379e+01
	4.991312455659980e+01
	4.989166139063870e+01
	4.987885534270004e+01
	4.999014339184796e+01
	4.992011369260249e+01
	4.991723847613469e+01
	4.987473938447768e+01
	4.992681152044312e+01
	4.990351201268194e+01
	4.992464569299508e+01
	4.987386764428929e+01
	4.990354721836959e+01
	4.992946898870810e+01
	4.995999546450480e+01
	4.993314909070143e+01
	4.987714879549051e+01
	4.990372008272350e+01
	4.989843865654115e+01
	4.989036572843909e+01
	4.986682494599604e+01
	4.992964631651440e+01
	4.991154581026420e+01
	4.992827407053208e+01
	4.990988762695013e+01
	4.995855287782025e+01
	4.988195514725555e+01
	4.997509290304188e+01
	4.993797647085275e+01

 11	5.499999999999999e-01
	4.995679845910534e+01
	5.000688263582956e+01
	4.990557524786426e+01
	4.994243474876236e+01
	4.992075426573761e+01
	4.999493097836269e+01
	5.002092345718389e+01
	5.000051264822554e+01
	4.993325731275785e+01
	4.999553745328429e+01
	4.993646743665892e+01
	4.997733381581048e+01
	4.990681716047975e+01
	4.990774895128561e+01
	4.996318054227979e+01
	4.989618425254260e+01
	4.996584999928115e+01
	4.999113919152158e+01
	4.994624526852894e+01
	5.000242083423015e+01
	4.998612924176054e+01
	4.993517614922040e+01
	4.998683590273615e+01
	4.994288402579525e+01
	4.994391250091987e+01
	4.998746883129608e+01
	4.996367370247541e+01
	4.997065673388828e+01
	4.996762569786195e+01
	4.996383525775704e+01
	5.000231174793839e+01
	5.001599936593954e+01
	4.994379200355399e+01
	4.998272461612606e+01
	4.995293693127716e+01
	4.997650119642602e+01
	4.997305859921893e+01
	4.992076942511288e+01
	5.000251099290115e+01
	4.996062439327628e+01
	4.996631740479030e+01
	4.994179971588093e+01
	4.995126178945016e+01
	4.991413447009150e+01
	4.997747527697716e+01
	4.993980969375143e+01
	4.991961263940724e+01
	4.991797443150762e+01
	4.994959677381708e+01
	4.990828309836537e+01
	4.998382978521577e+01
	4.997847831501205e+01
	4.995883462725209e+01