Title: monte carlo simulation plot
Date: Sun Dec 19 21:34:32  2021
Plotname: monte_carlo
Flags: real
No. Variables: 101
No. Points: 27
Variables:
	0	voltage_sweep	voltage
	1	output_current_0	notype
	2	output_current_1	notype
	3	output_current_2	notype
	4	output_current_3	notype
	5	output_current_4	notype
	6	output_current_5	notype
	7	output_current_6	notype
	8	output_current_7	notype
	9	output_current_8	notype
	10	output_current_9	notype
	11	output_current_10	notype
	12	output_current_11	notype
	13	output_current_12	notype
	14	output_current_13	notype
	15	output_current_14	notype
	16	output_current_15	notype
	17	output_current_16	notype
	18	output_current_17	notype
	19	output_current_18	notype
	20	output_current_19	notype
	21	output_current_20	notype
	22	output_current_21	notype
	23	output_current_22	notype
	24	output_current_23	notype
	25	output_current_24	notype
	26	output_current_25	notype
	27	output_current_26	notype
	28	output_current_27	notype
	29	output_current_28	notype
	30	output_current_29	notype
	31	output_current_30	notype
	32	output_current_31	notype
	33	output_current_32	notype
	34	output_current_33	notype
	35	output_current_34	notype
	36	output_current_35	notype
	37	output_current_36	notype
	38	output_current_37	notype
	39	output_current_38	notype
	40	output_current_39	notype
	41	output_current_40	notype
	42	output_current_41	notype
	43	output_current_42	notype
	44	output_current_43	notype
	45	output_current_44	notype
	46	output_current_45	notype
	47	output_current_46	notype
	48	output_current_47	notype
	49	output_current_48	notype
	50	output_current_49	notype
	51	output_current_50	notype
	52	output_current_51	notype
	53	output_current_52	notype
	54	output_current_53	notype
	55	output_current_54	notype
	56	output_current_55	notype
	57	output_current_56	notype
	58	output_current_57	notype
	59	output_current_58	notype
	60	output_current_59	notype
	61	output_current_60	notype
	62	output_current_61	notype
	63	output_current_62	notype
	64	output_current_63	notype
	65	output_current_64	notype
	66	output_current_65	notype
	67	output_current_66	notype
	68	output_current_67	notype
	69	output_current_68	notype
	70	output_current_69	notype
	71	output_current_70	notype
	72	output_current_71	notype
	73	output_current_72	notype
	74	output_current_73	notype
	75	output_current_74	notype
	76	output_current_75	notype
	77	output_current_76	notype
	78	output_current_77	notype
	79	output_current_78	notype
	80	output_current_79	notype
	81	output_current_80	notype
	82	output_current_81	notype
	83	output_current_82	notype
	84	output_current_83	notype
	85	output_current_84	notype
	86	output_current_85	notype
	87	output_current_86	notype
	88	output_current_87	notype
	89	output_current_88	notype
	90	output_current_89	notype
	91	output_current_90	notype
	92	output_current_91	notype
	93	output_current_92	notype
	94	output_current_93	notype
	95	output_current_94	notype
	96	output_current_95	notype
	97	output_current_96	notype
	98	output_current_97	notype
	99	output_current_98	notype
	100	output_current_99	notype
Values:
 0	0.000000000000000e+00
	-6.249681307191351e-02
	-2.874420025885678e-02
	-3.257206220786045e-01
	-7.259361300931155e-02
	-9.494810323275998e-02
	-3.686471860560728e-02
	-2.025330436353775e-02
	-3.157197222677465e-02
	-9.559841543016838e-02
	-3.459003545472918e-02
	-1.063604770151400e-01
	-3.764494687094774e-02
	-2.291088743216086e-01
	-1.465075096432661e-01
	-5.349854921269441e-02
	-2.289794159506392e-01
	-3.882089489963335e-02
	-3.765054346627246e-02
	-6.391775237029391e-02
	-3.052449706222325e-02
	-6.297214589267446e-02
	-9.223146127174596e-02
	-4.439491107443469e-02
	-8.476962495337939e-02
	-8.233131921776811e-02
	-3.018796388435822e-02
	-4.966265637361541e-02
	-5.969409141944534e-02
	-4.734865827622921e-02
	-4.589996836394884e-02
	-2.872988680867398e-02
	-2.856097113203544e-02
	-8.280754506918894e-02
	-4.178047121271693e-02
	-8.708019750869105e-02
	-4.688986546401433e-02
	-3.903813637065623e-02
	-1.368592917505169e-01
	-2.379460576463183e-02
	-5.439326714851710e-02
	-6.145989188526083e-02
	-1.150964441038252e-01
	-8.310399131894922e-02
	-1.336099942190826e-01
	-3.782562537090574e-02
	-7.899735824030754e-02
	-1.392013843248359e-01
	-1.558202157683097e-01
	-7.778375230543808e-02
	-1.303715209670971e-01
	-5.356934014418433e-02
	-4.066851300938153e-02
	-4.451207888915350e-02
	-1.424571436910914e-01
	-2.170616279322436e-02
	-5.256533258873002e-02
	-6.893841110770023e-02
	-9.563499879763808e-02
	-5.696737146476700e-02
	-5.429758049229487e-02
	-5.753320310488052e-02
	-4.426344345000941e-02
	-2.712714628825810e-02
	-8.847112231103996e-02
	-2.828889770030061e-02
	-2.148459294610772e-01
	-4.341265593043636e-02
	-8.097289251423423e-02
	-4.256209131772277e-02
	-4.316748443864057e-02
	-7.191962251180735e-02
	-9.181165690740045e-02
	-9.327321340748933e-02
	-1.403836438719493e-01
	-1.063031106877833e-01
	-2.165040576717453e-02
	-5.187211831110645e-02
	-6.606844611167784e-02
	-2.823832139771392e-01
	-7.729657902884522e-02
	-8.033015512968807e-02
	-8.339691889695384e-02
	-3.608156176694602e-01
	-1.037867245930429e-01
	-4.364244385017660e-02
	-2.878258203175297e-02
	-6.552716310272674e-02
	-2.459067044770941e-01
	-7.580304377432383e-02
	-1.067866799840125e-01
	-7.737474272656682e-02
	-2.138934328885982e-01
	-7.443698760132571e-02
	-8.384212649550180e-02
	-3.882344300262981e-02
	-5.685761667402043e-02
	-2.700346827006157e-02
	-1.384420782792193e-01
	-2.325898386076143e-02
	-6.434889393638991e-02

 1	5.000000000000000e-02
	2.488366826990638e+01
	2.646107645518255e+01
	2.256819509561869e+01
	2.372207647833690e+01
	2.496733237061116e+01
	2.628187316061506e+01
	2.509211390339680e+01
	2.581894567553553e+01
	2.616139942570011e+01
	2.317614412693025e+01
	2.797427719412155e+01
	2.542335875882983e+01
	2.195362195545622e+01
	2.334698333207271e+01
	2.542268049934458e+01
	2.177712998186209e+01
	2.720686672840215e+01
	2.495812013137040e+01
	2.318512723405034e+01
	2.662394890670194e+01
	2.332091836969817e+01
	2.624463902068622e+01
	2.719659285273625e+01
	2.407970389966917e+01
	2.254062401576293e+01
	2.628115633026933e+01
	2.353270201229676e+01
	2.452222994640108e+01
	2.700435194753651e+01
	2.421747485781289e+01
	2.604869222374694e+01
	2.723366533612082e+01
	2.447653816953801e+01
	2.549274132757453e+01
	2.595258186549512e+01
	2.545699253464603e+01
	2.519057706555812e+01
	2.271490790705359e+01
	2.715872014606268e+01
	2.511043335000330e+01
	2.360660074710507e+01
	2.533394582187535e+01
	2.302626167749916e+01
	2.542716980860513e+01
	2.616020774938628e+01
	2.226853737000075e+01
	2.280813421227327e+01
	2.402810215842451e+01
	2.610856037880504e+01
	1.970378218100783e+01
	2.430804648591544e+01
	2.536064191345207e+01
	2.417779083946695e+01
	2.258895362481473e+01
	2.716071666902505e+01
	2.457224448088649e+01
	2.454508314080094e+01
	2.539498586368386e+01
	2.635386924540006e+01
	2.493518378185466e+01
	2.578806789855408e+01
	2.475305749710471e+01
	2.772728057111090e+01
	2.479679676498244e+01
	2.598228912905687e+01
	2.129711624727215e+01
	2.508033622428628e+01
	2.503517620823433e+01
	2.416502307128640e+01
	2.455286183416410e+01
	2.543668191208202e+01
	2.662686572776094e+01
	2.604225996070118e+01
	2.709534760074093e+01
	2.426720659689044e+01
	2.674638866069403e+01
	2.426736898856346e+01
	2.550036429155137e+01
	2.264549497879814e+01
	2.405799202542829e+01
	2.724238100078454e+01
	2.220812331041832e+01
	2.249532521238061e+01
	2.170678642390443e+01
	2.437237560284081e+01
	2.537528121584706e+01
	2.364091284763246e+01
	2.035407592531366e+01
	2.455961743986248e+01
	2.385999493032513e+01
	2.399318092189984e+01
	2.313067701977765e+01
	2.311512567378961e+01
	2.330376595991281e+01
	2.649507981900164e+01
	2.442268778874124e+01
	2.509892655832776e+01
	2.230577542462612e+01
	2.586709441772370e+01
	2.383804205974396e+01

 2	1.000000000000000e-01
	4.007952411877154e+01
	4.163612809706362e+01
	3.755780109801282e+01
	3.886276262460417e+01
	4.011526572867254e+01
	4.145953749473902e+01
	4.035323441382919e+01
	4.103823298343633e+01
	4.124985893769911e+01
	3.830978848123835e+01
	4.274295606073093e+01
	4.062651467206277e+01
	3.685184458155494e+01
	3.842696480617304e+01
	4.061137451324970e+01
	3.663670971204515e+01
	4.219436429802595e+01
	4.019382524792718e+01
	3.827947467577493e+01
	4.176950018418973e+01
	3.847990850308885e+01
	4.132669318808674e+01
	4.223737300486601e+01
	3.924414696175995e+01
	3.755119842755838e+01
	4.143419418161298e+01
	3.867462888901480e+01
	3.973109693937080e+01
	4.203816823186018e+01
	3.940498102815437e+01
	4.125064401553691e+01
	4.234078621424830e+01
	3.965572743406685e+01
	4.070448919868105e+01
	4.109050714493079e+01
	4.066272855273323e+01
	4.039487452026200e+01
	3.773579331646265e+01
	4.221626050860067e+01
	4.030695069318167e+01
	3.876215513173766e+01
	4.049346654072419e+01
	3.810952220722661e+01
	4.054444305326150e+01
	4.131322741223538e+01
	3.723164500981778e+01
	3.784139910783298e+01
	3.916229996590902e+01
	4.122935550920914e+01
	3.402378283549608e+01
	3.953091192857071e+01
	4.057230165314485e+01
	3.935430259401866e+01
	3.759864148938528e+01
	4.221300529141329e+01
	3.978230262023923e+01
	3.975037914061362e+01
	4.055315686430944e+01
	4.143919472150378e+01
	4.012534176257041e+01
	4.097147317087975e+01
	3.998273521179600e+01
	4.265669457282099e+01
	3.999888351823857e+01
	4.113661636835262e+01
	3.606641186087588e+01
	4.029647606624035e+01
	4.019901366971899e+01
	3.940092796075444e+01
	3.977974748432670e+01
	4.060493939009226e+01
	4.166383113640335e+01
	4.116657937663915e+01
	4.202471966558178e+01
	3.940857867995964e+01
	4.194271392345085e+01
	3.945280395749057e+01
	4.067489798324363e+01
	3.764955732976898e+01
	3.924440530562979e+01
	4.218498123400877e+01
	3.717939230583661e+01
	3.747552759727417e+01
	3.656864912652722e+01
	3.957001357013390e+01
	4.060857477665219e+01
	3.880426180159638e+01
	3.489635775223157e+01
	3.973628006745822e+01
	3.900505112932511e+01
	3.913429283517009e+01
	3.818523750195413e+01
	3.822388754518143e+01
	3.841612684330571e+01
	4.159048585808660e+01
	3.960041489369545e+01
	4.033143963588847e+01
	3.726624105034179e+01
	4.109611829902055e+01
	3.902443758929729e+01

 3	1.500000000000000e-01
	4.678898372378068e+01
	4.758230121854339e+01
	4.523023479869074e+01
	4.616467454188959e+01
	4.669573660129778e+01
	4.748107197304627e+01
	4.706358825982428e+01
	4.732548978256669e+01
	4.718694997206656e+01
	4.598920497951228e+01
	4.768352226030593e+01
	4.707695700711901e+01
	4.487937456254510e+01
	4.582951822997851e+01
	4.703687224588455e+01
	4.472890181816253e+01
	4.762573300735699e+01
	4.693677607346767e+01
	4.586360719004774e+01
	4.761384827532168e+01
	4.608464801239749e+01
	4.722281740850067e+01
	4.773378882230402e+01
	4.635516158783089e+01
	4.544019719383515e+01
	4.742336813667197e+01
	4.611517711899396e+01
	4.666774643269627e+01
	4.759234129360530e+01
	4.648741124059084e+01
	4.740960482340684e+01
	4.790098747180748e+01
	4.655565441364371e+01
	4.713430283580667e+01
	4.718883219095729e+01
	4.709923131935505e+01
	4.696438355203739e+01
	4.548066064131431e+01
	4.774630270023487e+01
	4.689990503114029e+01
	4.617266069863332e+01
	4.689979912961078e+01
	4.577775567426003e+01
	4.683481122208077e+01
	4.735431138022661e+01
	4.524027079990636e+01
	4.553754345184538e+01
	4.621651351343465e+01
	4.723770534136333e+01
	4.293472866319782e+01
	4.661651212344302e+01
	4.706399089186072e+01
	4.644459875113990e+01
	4.541016811039655e+01
	4.773790694432147e+01
	4.669295182801363e+01
	4.666355072339827e+01
	4.693288228205467e+01
	4.730388403187424e+01
	4.680393788895356e+01
	4.721561707777948e+01
	4.682698636126223e+01
	4.785277735117207e+01
	4.675733675231974e+01
	4.725863696259020e+01
	4.438946053735796e+01
	4.693833162667865e+01
	4.677286303317167e+01
	4.659662002373102e+01
	4.673186152504005e+01
	4.698529250629960e+01
	4.735015591380599e+01
	4.720409482685483e+01
	4.740242511040694e+01
	4.635888189595734e+01
	4.779610032174453e+01
	4.649853453992672e+01
	4.703679608978251e+01
	4.532115066229175e+01
	4.641144773748587e+01
	4.754090349723123e+01
	4.525192167009881e+01
	4.516501154472503e+01
	4.481764053706865e+01
	4.657688581181885e+01
	4.712854097419384e+01
	4.620609311209532e+01
	4.356386793942946e+01
	4.658754624102686e+01
	4.620857721614299e+01
	4.626436357998693e+01
	4.564898230603135e+01
	4.588141570463088e+01
	4.594159602229627e+01
	4.741660206204345e+01
	4.654125226842207e+01
	4.699361371185255e+01
	4.520140040227202e+01
	4.737470341023239e+01
	4.633627984916870e+01

 4	2.000000000000000e-01
	4.876882764902486e+01
	4.916632640461819e+01
	4.793682950588471e+01
	4.853735225284947e+01
	4.860892566671050e+01
	4.910020517179758e+01
	4.903361080845283e+01
	4.907103191047787e+01
	4.877676949221078e+01
	4.864984394456918e+01
	4.889208331788041e+01
	4.890849171273852e+01
	4.791369175372127e+01
	4.829201683871263e+01
	4.885787679899411e+01
	4.783489242226290e+01
	4.900040774266949e+01
	4.893101002409234e+01
	4.845647098986679e+01
	4.915416148644665e+01
	4.868246978030426e+01
	4.879411719714891e+01
	4.913359970462844e+01
	4.859285383971494e+01
	4.830917666677568e+01
	4.902740237207673e+01
	4.858778816386285e+01
	4.878527464845651e+01
	4.901506647459266e+01
	4.869909373903750e+01
	4.909206722711941e+01
	4.932207660610869e+01
	4.865423480860048e+01
	4.895523312702814e+01
	4.885147570375084e+01
	4.892456713849686e+01
	4.886111261920138e+01
	4.822671347594169e+01
	4.915631950014798e+01
	4.881186019713851e+01
	4.862232282841342e+01
	4.871934528667752e+01
	4.844341134616786e+01
	4.859781632179363e+01
	4.898352099205380e+01
	4.822885783075802e+01
	4.823978892710165e+01
	4.842609069432842e+01
	4.885723247880077e+01
	4.718833738641761e+01
	4.882765493408243e+01
	4.891736906923361e+01
	4.866293777601557e+01
	4.821598074586917e+01
	4.914595140264721e+01
	4.879271327873705e+01
	4.876746803598878e+01
	4.873601375957157e+01
	4.885722064528310e+01
	4.876574324067570e+01
	4.894428938409458e+01
	4.888329690282026e+01
	4.913956797941579e+01
	4.876882334962072e+01
	4.892519067883753e+01
	4.775670501028922e+01
	4.887531848836468e+01
	4.867948478522155e+01
	4.887860461643572e+01
	4.885514566815158e+01
	4.878533835830272e+01
	4.883165592052151e+01
	4.883899382894541e+01
	4.876828714439185e+01
	4.849569990460017e+01
	4.933634507804630e+01
	4.868668884885799e+01
	4.882638532252158e+01
	4.802101759605881e+01
	4.868449364540169e+01
	4.889158367362930e+01
	4.830080446624973e+01
	4.789149269282859e+01
	4.807201929986848e+01
	4.873749546796058e+01
	4.899455137151519e+01
	4.864910557971771e+01
	4.740988484476928e+01
	4.865535446393638e+01
	4.851419167323863e+01
	4.851731268214025e+01
	4.816772847936494e+01
	4.853321783932960e+01
	4.848766786001323e+01
	4.895075374266103e+01
	4.866324668362687e+01
	4.893904464118963e+01
	4.812770048326972e+01
	4.911399071559109e+01
	4.870955487857503e+01

 5	2.500000000000000e-01
	4.934305253038919e+01
	4.963751814040769e+01
	4.875044798502621e+01
	4.922428105014068e+01
	4.916754877918217e+01
	4.958030603693236e+01
	4.960307735791419e+01
	4.958259613816406e+01
	4.925288226470212e+01
	4.942527744461575e+01
	4.927859538581252e+01
	4.944184933695418e+01
	4.883560039184529e+01
	4.901228278703681e+01
	4.938949578157568e+01
	4.878397353650938e+01
	4.942104106678020e+01
	4.950802335395178e+01
	4.921147926850874e+01
	4.961475012701510e+01
	4.943931045422318e+01
	4.926545883113492e+01
	4.956106735809268e+01
	4.924082478169312e+01
	4.915911642995661e+01
	4.950291862670540e+01
	4.930372023573899e+01
	4.939763417488694e+01
	4.944763215358749e+01
	4.933664948093613e+01
	4.958746877109120e+01
	4.975405524326217e+01
	4.926246913723384e+01
	4.948642311926755e+01
	4.934540270157771e+01
	4.945714698021330e+01
	4.941156221892730e+01
	4.903836432176996e+01
	4.958495203666227e+01
	4.936732191082854e+01
	4.933232075475698e+01
	4.925528788434744e+01
	4.922400792192987e+01
	4.912027830961552e+01
	4.946564091714385e+01
	4.912166373652067e+01
	4.903677965093596e+01
	4.907145381441110e+01
	4.933952241921728e+01
	4.868042179753760e+01
	4.946610399774116e+01
	4.945669874432523e+01
	4.930228173618753e+01
	4.904862930874801e+01
	4.957402971059871e+01
	4.939937814364541e+01
	4.937664787568914e+01
	4.926599357183716e+01
	4.932158238623121e+01
	4.933447337775871e+01
	4.945294161706011e+01
	4.947764926271697e+01
	4.953933615026639e+01
	4.935389603629684e+01
	4.941591592702837e+01
	4.880990984537084e+01
	4.943688215782262e+01
	4.923529854405245e+01
	4.953688766057003e+01
	4.946803542149104e+01
	4.931268663506687e+01
	4.928114855360732e+01
	4.932641630849997e+01
	4.919399829973422e+01
	4.911632015673217e+01
	4.979684673802036e+01
	4.931788146022870e+01
	4.935072135760937e+01
	4.882893242691856e+01
	4.934264525660571e+01
	4.930909420153154e+01
	4.921684534980420e+01
	4.871474170977958e+01
	4.906971109797271e+01
	4.936032991127866e+01
	4.953668694742319e+01
	4.935750463590759e+01
	4.868684753436456e+01
	4.925441190728030e+01
	4.918379427923110e+01
	4.916906339086434e+01
	4.891106654808974e+01
	4.930878145593910e+01
	4.922943083633798e+01
	4.940945652929987e+01
	4.927600444310366e+01
	4.950192786101672e+01
	4.900257294091956e+01
	4.962351353125782e+01
	4.939652965264590e+01

 6	3.000000000000000e-01
	4.957688949133775e+01
	4.984304147488640e+01
	4.906352944943374e+01
	4.948892529088523e+01
	4.939864197335964e+01
	4.978825195283386e+01
	4.983485164790228e+01
	4.979895138447531e+01
	4.946162710569961e+01
	4.971272737930126e+01
	4.946352524164100e+01
	4.966392850934616e+01
	4.917326440932388e+01
	4.928973126714482e+01
	4.961156358053182e+01
	4.912927792858549e+01
	4.961287443978716e+01
	4.974202334149191e+01
	4.949418424277552e+01
	4.981744562332358e+01
	4.972270409992017e+01
	4.947279236658711e+01
	4.975497808929830e+01
	4.949548936932727e+01
	4.946874490733698e+01
	4.970934653920596e+01
	4.957530380506081e+01
	4.964180015589685e+01
	4.964283160277961e+01
	4.958689951193099e+01
	4.979941970011505e+01
	4.994907110454638e+01
	4.950629599136548e+01
	4.970813803282896e+01
	4.955867714696318e+01
	4.967934572826130e+01
	4.963825127351291e+01
	4.934027008194220e+01
	4.977883714212070e+01
	4.959579696992206e+01
	4.960286593346484e+01
	4.948118933821555e+01
	4.951468809401044e+01
	4.934339643326673e+01
	4.967399108252429e+01
	4.944297030289296e+01
	4.933473891125168e+01
	4.932893201031936e+01
	4.954919636580998e+01
	4.918437659867983e+01
	4.971707052137749e+01
	4.968046379581780e+01
	4.955297992892361e+01
	4.935660834102509e+01
	4.976781517744598e+01
	4.964166872884856e+01
	4.962030408884026e+01
	4.948932154542224e+01
	4.952560240211075e+01
	4.956656346816841e+01
	4.966908786715562e+01
	4.971647186220122e+01
	4.972544327760215e+01
	4.959185946750203e+01
	4.962636669190784e+01
	4.918410780896365e+01
	4.966669796208968e+01
	4.946493913950546e+01
	4.979288316957383e+01
	4.971180306078912e+01
	4.953422751437036e+01
	4.948250166059761e+01
	4.953817317015379e+01
	4.939111478060123e+01
	4.936461434060235e+01
	4.999965290307905e+01
	4.956660253237753e+01
	4.957125868222190e+01
	4.913795190087896e+01
	4.959986781620344e+01
	4.950126592681222e+01
	4.954508140603124e+01
	4.903249474112097e+01
	4.942185746158070e+01
	4.960654490818867e+01
	4.976106129488556e+01
	4.962784569092983e+01
	4.912931264364835e+01
	4.949542482650740e+01
	4.944537034224641e+01
	4.942445533153610e+01
	4.919848863100510e+01
	4.959778218005918e+01
	4.950952582692984e+01
	4.961149306835196e+01
	4.951995361572375e+01
	4.973179446316227e+01
	4.932200114729718e+01
	4.983925749457718e+01
	4.966100425102347e+01

 7	3.500000000000000e-01
	4.970771108750004e+01
	4.996502293559517e+01
	4.922762205915787e+01
	4.962972896457971e+01
	4.952942727913198e+01
	4.991081886968605e+01
	4.996515622828043e+01
	4.992420734822845e+01
	4.958520685797323e+01
	4.986021595843916e+01
	4.957998731410320e+01
	4.979089586746384e+01
	4.934186708201236e+01
	4.943663922709631e+01
	4.973860279793777e+01
	4.930035900585776e+01
	4.973063299668805e+01
	4.987274194921481e+01
	4.964047638737496e+01
	4.993856499573273e+01
	4.986912541239045e+01
	4.959589320272027e+01
	4.987322465136150e+01
	4.963333371088454e+01
	4.962390762104879e+01
	4.983150013325054e+01
	4.971791028318077e+01
	4.977585947539966e+01
	4.976148267106864e+01
	4.972271154384325e+01
	4.992336146616202e+01
	5.006785543479808e+01
	4.964062433657148e+01
	4.983499675991821e+01
	4.968344143048724e+01
	4.980635845982292e+01
	4.976667510254410e+01
	4.949458284456902e+01
	4.989733340011321e+01
	4.972482189201724e+01
	4.974526782252535e+01
	4.961059433538219e+01
	4.966388602935289e+01
	4.947250834895435e+01
	4.979672428113329e+01
	4.960171032458781e+01
	4.948779853775737e+01
	4.946951091147102e+01
	4.967267054151984e+01
	4.940160801864165e+01
	4.985317643580833e+01
	4.980789752744930e+01
	4.968899135003959e+01
	4.951289394188669e+01
	4.988642328509260e+01
	4.977504377990283e+01
	4.975432633941139e+01
	4.961748236960418e+01
	4.964708060247532e+01
	4.969684680172782e+01
	4.979426861054172e+01
	4.984870792670913e+01
	4.984157950970987e+01
	4.972442780651928e+01
	4.974983952595524e+01
	4.936376655864530e+01
	4.979604046838034e+01
	4.959486226883448e+01
	4.993048543253066e+01
	4.984556052490576e+01
	4.966130371274495e+01
	4.960365244799110e+01
	4.966256006568395e+01
	4.951205336565720e+01
	4.950104899082851e+01
	5.012105983376097e+01
	4.970196606008249e+01
	4.969794229909360e+01
	4.929921194142322e+01
	4.973832153728520e+01
	4.961932797861680e+01
	4.970606710555229e+01
	4.919929428053374e+01
	4.959091230057186e+01
	4.974105114222073e+01
	4.988879391431851e+01
	4.977026680178138e+01
	4.933142300014219e+01
	4.962873681263208e+01
	4.958593355060053e+01
	4.956254108960754e+01
	4.935065273582620e+01
	4.974623454098150e+01
	4.965539505900353e+01
	4.973230478956753e+01
	4.965393758977034e+01
	4.986127982498784e+01
	4.948183880608740e+01
	4.996450410500210e+01
	4.980152159326222e+01

 8	4.000000000000000e-01
	4.979754544162532e+01
	5.005259620094612e+01
	4.933298077012334e+01
	4.972313707975011e+01
	4.961961960812055e+01
	4.999821136405527e+01
	5.005572967276733e+01
	5.001262633790049e+01
	4.967278566742539e+01
	4.995607211493998e+01
	4.966548920389176e+01
	4.987978817716011e+01
	4.944730261503523e+01
	4.953300495731737e+01
	4.982728833050846e+01
	4.940680999256227e+01
	4.981696750406151e+01
	4.996275732986871e+01
	4.973576420238299e+01
	5.002588296256784e+01
	4.996419808441714e+01
	4.968335584480438e+01
	4.995921582963024e+01
	4.972563702760235e+01
	4.972241515591299e+01
	4.991909782072531e+01
	4.981196975090987e+01
	4.986672614337674e+01
	4.984766983975332e+01
	4.981439744448836e+01
	5.001153005810459e+01
	5.015452043084941e+01
	4.973163629903463e+01
	4.992370380848383e+01
	4.977119489510949e+01
	4.989502440007625e+01
	4.985604353279047e+01
	4.959343341996670e+01
	4.998420626224566e+01
	4.981410494990838e+01
	4.983905648914786e+01
	4.970007864577020e+01
	4.976018119899486e+01
	4.956228483095413e+01
	4.988434540327005e+01
	4.970149668779514e+01
	4.958611389021596e+01
	4.956336651301923e+01
	4.976007738655575e+01
	4.952332656694438e+01
	4.994474966846674e+01
	4.989675993979318e+01
	4.978087364133606e+01
	4.961233888160104e+01
	4.997356933631944e+01
	4.986577055009927e+01
	4.984512995076540e+01
	4.970651606382324e+01
	4.973408822482030e+01
	4.978673991883889e+01
	4.988214694090433e+01
	4.993910039511728e+01
	4.992779636421628e+01
	4.981472847022275e+01
	4.983801683051112e+01
	4.947310731546811e+01
	4.988548568265593e+01
	4.968456896148961e+01
	5.002266819099975e+01
	4.993643251170960e+01
	4.974986243400960e+01
	4.969039428720447e+01
	4.975017700148800e+01
	4.959898518755251e+01
	4.959315974526640e+01
	5.020886201537070e+01
	4.979341073967080e+01
	4.978639221351797e+01
	4.940270824304758e+01
	4.983064429952611e+01
	4.970509080653778e+01
	4.980649872256444e+01
	4.930628503069484e+01
	4.969460454203153e+01
	4.983228438492737e+01
	4.997808983926581e+01
	4.986404513154905e+01
	4.944952251740654e+01
	4.971942881174169e+01
	4.967932756827498e+01
	4.965516628019319e+01
	4.944982582261864e+01
	4.984212281269559e+01
	4.975050755159590e+01
	4.981940916235590e+01
	4.974498459050483e+01
	4.995126093484763e+01
	4.958264289215212e+01
	5.005332330442185e+01
	4.989458283332586e+01

 9	4.500000000000000e-01
	4.986619308844907e+01
	5.012188066639764e+01
	4.940745060366008e+01
	4.979310665031382e+01
	4.968832683210195e+01
	5.006677801233997e+01
	5.012653093192576e+01
	5.008184011077760e+01
	4.974018480113158e+01
	5.002763788102254e+01
	4.973195171875970e+01
	4.994907401294430e+01
	4.952175417890614e+01
	4.960375181362140e+01
	4.989589034753517e+01
	4.948185085904336e+01
	4.988602042094344e+01
	5.003210946388586e+01
	4.980652695299437e+01
	5.009510411410449e+01
	5.003438463159374e+01
	4.975084879952490e+01
	5.002712136891255e+01
	4.979483287919392e+01
	4.979415721162407e+01
	4.998847554900290e+01
	4.988260715542209e+01
	4.993558797196503e+01
	4.991584670271075e+01
	4.988422834689937e+01
	5.008100289748194e+01
	5.022361236004360e+01
	4.980028050430339e+01
	4.999256851566185e+01
	4.983843797036025e+01
	4.996366260684123e+01
	4.992546567325748e+01
	4.966514660791955e+01
	5.005403122856998e+01
	4.988280079334852e+01
	4.990903392635489e+01
	4.976763107999971e+01
	4.983088866528421e+01
	4.963017538764186e+01
	4.995338188880090e+01
	4.977381533327087e+01
	4.965743449780302e+01
	4.963250344531341e+01
	4.982757509465084e+01
	4.960491538601077e+01
	5.001397249900538e+01
	4.996567965195376e+01
	4.985099889208140e+01
	4.968398668931057e+01
	5.004387258172416e+01
	4.993490628906849e+01
	4.991371953993367e+01
	4.977434304325509e+01
	4.980230818352975e+01
	4.985594821181301e+01
	4.994998585732750e+01
	5.000827487536730e+01
	4.999749118437483e+01
	4.988273316181338e+01
	4.990788042029924e+01
	4.954935924945546e+01
	4.995447543860065e+01
	4.975310528377197e+01
	5.009240675590181e+01
	5.000572807008219e+01
	4.981786487825166e+01
	4.975747515667539e+01
	4.981721563157744e+01
	4.966524172219625e+01
	4.966230376165972e+01
	5.027884180127165e+01
	4.986292893363283e+01
	4.985449305523488e+01
	4.947617670211487e+01
	4.989960912266784e+01
	4.977205785228070e+01
	4.987866075137587e+01
	4.938158191320375e+01
	4.976827118512465e+01
	4.990198132005168e+01
	5.004779463707782e+01
	4.993388636835637e+01
	4.952966231853734e+01
	4.978816209731847e+01
	4.974868428335010e+01
	4.972500651732425e+01
	4.952155365203184e+01
	4.991257005908527e+01
	4.982075011837768e+01
	4.988844399370713e+01
	4.981440305174846e+01
	5.002139547985668e+01
	4.965506104805009e+01
	5.012339697983443e+01
	4.996409819980115e+01

 10	4.999999999999999e-01
	4.991949173588264e+01
	5.017744656551221e+01
	4.945926154321977e+01
	4.984721849913664e+01
	4.974094397342541e+01
	5.012097833625388e+01
	5.018414265101404e+01
	5.013705949609448e+01
	4.979101195612672e+01
	5.008406852426302e+01
	4.978045038015952e+01
	5.000438781711651e+01
	4.957538681055694e+01
	4.965648209586651e+01
	4.994968914166699e+01
	4.953608312422721e+01
	4.994144164326923e+01
	5.008697428233208e+01
	4.986139680742644e+01
	5.015058337074028e+01
	5.008807804938000e+01
	4.980194859546849e+01
	5.008010749303973e+01
	4.984770985126642e+01
	4.984890364741408e+01
	5.004443842191440e+01
	4.993805787125599e+01
	4.998879850578889e+01
	4.996949294300344e+01
	4.993933902273950e+01
	5.013686512861815e+01
	5.027884609876674e+01
	4.985269733281527e+01
	5.004698277272517e+01
	4.988905917417598e+01
	5.001758998780749e+01
	4.998086077869618e+01
	4.971868274465761e+01
	5.011091150054661e+01
	4.993656985756672e+01
	4.996308075489050e+01
	4.981767757258340e+01
	4.988474314761998e+01
	4.968038148295067e+01
	5.000858863984719e+01
	4.982905994575597e+01
	4.971045035134477e+01
	4.968307887068192e+01
	4.987906526084682e+01
	4.966476883410981e+01
	5.006765360311672e+01
	5.002023288022835e+01
	4.990662589760496e+01
	4.973697495343904e+01
	5.010159851826586e+01
	4.998890762192862e+01
	4.996625648972869e+01
	4.982560181449134e+01
	4.985582340515484e+01
	4.991047754446601e+01
	5.000234709422354e+01
	5.006253869422185e+01
	5.005411977847393e+01
	4.993392790682793e+01
	4.996468926736952e+01
	4.960460260142034e+01
	5.000890267898780e+01
	4.980588993380134e+01
	5.014695633168945e+01
	5.006004675899456e+01
	4.987020571467819e+01
	4.980791487961837e+01
	4.986733799313998e+01
	4.971299444113961e+01
	4.971476243540904e+01
	5.033557254401186e+01
	4.991745464580171e+01
	4.990715723751193e+01
	4.952786181214883e+01
	4.995204742131180e+01
	4.982265570866503e+01
	4.993306292470152e+01
	4.943345042784485e+01
	4.982354121432125e+01
	4.995706944365980e+01
	5.010380411218452e+01
	4.998754411926097e+01
	4.958695281545523e+01
	4.984105562965801e+01
	4.980092549287398e+01
	4.977916985664915e+01
	4.957341043217070e+01
	4.996619691821386e+01
	4.987430249035231e+01
	4.994379315384056e+01
	4.986884477916481e+01
	5.007801769509328e+01
	4.970891673150991e+01
	5.018023408555447e+01
	5.001748137202662e+01

 11	5.499999999999999e-01
	4.995679845910534e+01
	5.021789971404054e+01
	4.948965061865390e+01
	4.988544099423761e+01
	4.977650638215622e+01
	5.015929042801999e+01
	5.022861481460302e+01
	5.017736577037025e+01
	4.982319928431187e+01
	5.012674864084175e+01
	4.980777310309838e+01
	5.004461152793849e+01
	4.960998891211197e+01
	4.969157111731851e+01
	4.998768254517027e+01
	4.957149994349697e+01
	4.998106627594496e+01
	5.012655759414745e+01
	4.990113862453501e+01
	5.019073171449204e+01
	5.012617023672039e+01
	4.983452520916946e+01
	5.011567124082756e+01
	4.988418568474236e+01
	4.988793752965003e+01
	5.008529708336025e+01
	4.997897462076571e+01
	5.002607084775301e+01
	5.000627448026535e+01
	4.997966831590914e+01
	5.017761999592916e+01
	5.031810056247560e+01
	4.988841419494223e+01
	5.008608259302982e+01
	4.992124144507484e+01
	5.005586162441908e+01
	5.002134654315661e+01
	4.975515139514811e+01
	5.015263367056592e+01
	4.997468283118671e+01
	5.000137368309037e+01
	4.984884816150621e+01
	4.992232966734278e+01
	4.971137701860430e+01
	5.004867350902180e+01
	4.986893986845412e+01
	4.974613866980398e+01
	4.971478316286840e+01
	4.991261156422563e+01
	4.970847371881686e+01
	5.010578534388156e+01
	5.005971124568646e+01
	4.994787745922523e+01