Title: lateral pnp current mirror
Date: Tue Jun 30 17:19:12  2020
Plotname: DC transfer characteristic
Flags: real
No. Variables: 6
No. Points: 490
Variables:
	0	n2	voltage
	1	n1	voltage
	2	n_pos	voltage
	3	v-sweep	voltage
	4	i(v1)	current
	5	i(v2)	current
Values:
 0	0.000000000000000e+00
	4.288366667155436e+00
	5.000000000000000e+00
	0.000000000000000e+00
	-1.041697144904402e-04
	5.328375648317599e-05

 1	1.000000000000000e-02
	4.288366700570882e+00
	5.000000000000000e+00
	1.000000000000000e-02
	-1.041578665064297e-04
	5.327190953777531e-05

 2	2.000000000000000e-02
	4.288366732274441e+00
	5.000000000000000e+00
	2.000000000000000e-02
	-1.041460171130465e-04
	5.326006122644504e-05

 3	3.000000000000000e-02
	4.288366763979661e+00
	5.000000000000000e+00
	3.000000000000000e-02
	-1.041341673552743e-04
	5.324821255074288e-05

 4	4.000000000000000e-02
	4.288366795688177e+00
	5.000000000000000e+00
	4.000000000000000e-02
	-1.041223168697092e-04
	5.323636314742273e-05

 5	5.000000000000000e-02
	4.288366827399991e+00
	5.000000000000000e+00
	5.000000000000000e-02
	-1.041104656563235e-04
	5.322451301639583e-05

 6	6.000000000000000e-02
	4.288366859115097e+00
	5.000000000000000e+00
	6.000000000000000e-02
	-1.040986137150618e-04
	5.321266215757445e-05

 7	7.000000000000001e-02
	4.288366890833501e+00
	5.000000000000000e+00
	7.000000000000001e-02
	-1.040867610458129e-04
	5.320081057085977e-05

 8	8.000000000000000e-02
	4.288366922555207e+00
	5.000000000000000e+00
	8.000000000000000e-02
	-1.040749076484451e-04
	5.318895825616064e-05

 9	9.000000000000000e-02
	4.288366954280208e+00
	5.000000000000000e+00
	9.000000000000000e-02
	-1.040630535229028e-04
	5.317710521339733e-05

 10	9.999999999999999e-02
	4.288366986008516e+00
	5.000000000000000e+00
	9.999999999999999e-02
	-1.040511986690820e-04
	5.316525144245885e-05

 11	1.100000000000000e-01
	4.288367017740114e+00
	5.000000000000000e+00
	1.100000000000000e-01
	-1.040393430868994e-04
	5.315339694328145e-05

 12	1.200000000000000e-01
	4.288367049475018e+00
	5.000000000000000e+00
	1.200000000000000e-01
	-1.040274867762578e-04
	5.314154171575489e-05

 13	1.300000000000000e-01
	4.288367081213217e+00
	5.000000000000000e+00
	1.300000000000000e-01
	-1.040156297371087e-04
	5.312968575980079e-05

 14	1.400000000000000e-01
	4.288367112954728e+00
	5.000000000000000e+00
	1.400000000000000e-01
	-1.040037719692646e-04
	5.311782907530948e-05

 15	1.500000000000000e-01
	4.288367144699538e+00
	5.000000000000000e+00
	1.500000000000000e-01
	-1.039919134727327e-04
	5.310597166220744e-05

 16	1.600000000000000e-01
	4.288367176447648e+00
	5.000000000000000e+00
	1.600000000000000e-01
	-1.039800542473879e-04
	5.309411352039849e-05

 17	1.700000000000000e-01
	4.288367208199066e+00
	5.000000000000000e+00
	1.700000000000000e-01
	-1.039681942930706e-04
	5.308225464979233e-05

 18	1.800000000000000e-01
	4.288367239953775e+00
	5.000000000000000e+00
	1.800000000000000e-01
	-1.039563336098712e-04
	5.307039505031164e-05

 19	1.900000000000000e-01
	4.288367271711801e+00
	5.000000000000000e+00
	1.900000000000000e-01
	-1.039444721974842e-04
	5.305853472183894e-05

 20	2.000000000000000e-01
	4.288367303473135e+00
	5.000000000000000e+00
	2.000000000000000e-01
	-1.039326100559373e-04
	5.304667366429016e-05

 21	2.100000000000000e-01
	4.288367335237766e+00
	5.000000000000000e+00
	2.100000000000000e-01
	-1.039207471851197e-04
	5.303481187759709e-05

 22	2.200000000000001e-01
	4.288367367005705e+00
	5.000000000000000e+00
	2.200000000000001e-01
	-1.039088835849342e-04
	5.302294936164643e-05

 23	2.300000000000001e-01
	4.288367398776952e+00
	5.000000000000000e+00
	2.300000000000001e-01
	-1.038970192553251e-04
	5.301108611635233e-05

 24	2.400000000000001e-01
	4.288367430551510e+00
	5.000000000000000e+00
	2.400000000000001e-01
	-1.038851541961330e-04
	5.299922214162234e-05

 25	2.500000000000001e-01
	4.288367462329362e+00
	5.000000000000000e+00
	2.500000000000001e-01
	-1.038732884073718e-04
	5.298735743738524e-05

 26	2.600000000000001e-01
	4.288367494110534e+00
	5.000000000000000e+00
	2.600000000000001e-01
	-1.038614218888609e-04
	5.297549200351960e-05

 27	2.700000000000001e-01
	4.288367525895016e+00
	5.000000000000000e+00
	2.700000000000001e-01
	-1.038495546404825e-04
	5.296362583994790e-05

 28	2.800000000000001e-01
	4.288367557682801e+00
	5.000000000000000e+00
	2.800000000000001e-01
	-1.038376866622087e-04
	5.295175894658860e-05

 29	2.900000000000001e-01
	4.288367589473898e+00
	5.000000000000000e+00
	2.900000000000001e-01
	-1.038258179539842e-04
	5.293989132333865e-05

 30	3.000000000000001e-01
	4.288367621268305e+00
	5.000000000000000e+00
	3.000000000000001e-01
	-1.038139485156284e-04
	5.292802297011560e-05

 31	3.100000000000001e-01
	4.288367653066030e+00
	5.000000000000000e+00
	3.100000000000001e-01
	-1.038020783470789e-04
	5.291615388680919e-05

 32	3.200000000000001e-01
	4.288367684867054e+00
	5.000000000000000e+00
	3.200000000000001e-01
	-1.037902074483149e-04
	5.290428407336259e-05

 33	3.300000000000001e-01
	4.288367716671400e+00
	5.000000000000000e+00
	3.300000000000001e-01
	-1.037783358191283e-04
	5.289241352965152e-05

 34	3.400000000000001e-01
	4.288367748479057e+00
	5.000000000000000e+00
	3.400000000000001e-01
	-1.037664634595259e-04
	5.288054225559817e-05

 35	3.500000000000001e-01
	4.288367780290024e+00
	5.000000000000000e+00
	3.500000000000001e-01
	-1.037545903693760e-04
	5.286867025111803e-05

 36	3.600000000000002e-01
	4.288367812104312e+00
	5.000000000000000e+00
	3.600000000000002e-01
	-1.037427165485535e-04
	5.285679751610599e-05

 37	3.700000000000002e-01
	4.288367843921908e+00
	5.000000000000000e+00
	3.700000000000002e-01
	-1.037308419970726e-04
	5.284492405048394e-05

 38	3.800000000000002e-01
	4.288367875742816e+00
	5.000000000000000e+00
	3.800000000000002e-01
	-1.037189667147179e-04
	5.283304985416156e-05

 39	3.900000000000002e-01
	4.288367907567039e+00
	5.000000000000000e+00
	3.900000000000002e-01
	-1.037070907015034e-04
	5.282117492704408e-05

 40	4.000000000000002e-01
	4.288367939394584e+00
	5.000000000000000e+00
	4.000000000000002e-01
	-1.036952139572486e-04
	5.280929926902678e-05

 41	4.100000000000002e-01
	4.288367971225441e+00
	5.000000000000000e+00
	4.100000000000002e-01
	-1.036833364819259e-04
	5.279742288003919e-05

 42	4.200000000000002e-01
	4.288368003059619e+00
	5.000000000000000e+00
	4.200000000000002e-01
	-1.036714582753964e-04
	5.278554575997190e-05

 43	4.300000000000002e-01
	4.288368034897125e+00
	5.000000000000000e+00
	4.300000000000002e-01
	-1.036595793375630e-04
	5.277366790873222e-05

 44	4.400000000000002e-01
	4.288368066737936e+00
	5.000000000000000e+00
	4.400000000000002e-01
	-1.036476996684188e-04
	5.276178932625618e-05

 45	4.500000000000002e-01
	4.288368098582061e+00
	5.000000000000000e+00
	4.500000000000002e-01
	-1.036358192678111e-04
	5.274991001244283e-05

 46	4.600000000000002e-01
	4.288368130429513e+00
	5.000000000000000e+00
	4.600000000000002e-01
	-1.036239381356427e-04
	5.273802996718551e-05

 47	4.700000000000003e-01
	4.288368162280285e+00
	5.000000000000000e+00
	4.700000000000003e-01
	-1.036120562718304e-04
	5.272614919039919e-05

 48	4.800000000000003e-01
	4.288368194134377e+00
	5.000000000000000e+00
	4.800000000000003e-01
	-1.036001736763326e-04
	5.271426768199358e-05

 49	4.900000000000003e-01
	4.288368225991793e+00
	5.000000000000000e+00
	4.900000000000003e-01
	-1.035882903489549e-04
	5.270238544187781e-05

 50	5.000000000000002e-01
	4.288368257852529e+00
	5.000000000000000e+00
	5.000000000000002e-01
	-1.035764062896696e-04
	5.269050246996373e-05

 51	5.100000000000002e-01
	4.288368289716582e+00
	5.000000000000000e+00
	5.100000000000002e-01
	-1.035645214984143e-04
	5.267861876616094e-05

 52	5.200000000000002e-01
	4.288368321583954e+00
	5.000000000000000e+00
	5.200000000000002e-01
	-1.035526359750502e-04
	5.266673433038365e-05

 53	5.300000000000002e-01
	4.288368353454665e+00
	5.000000000000000e+00
	5.300000000000002e-01
	-1.035407497194940e-04
	5.265484916251067e-05

 54	5.400000000000003e-01
	4.288368385328681e+00
	5.000000000000000e+00
	5.400000000000003e-01
	-1.035288627316902e-04
	5.264296326249558e-05

 55	5.500000000000003e-01
	4.288368417206032e+00
	5.000000000000000e+00
	5.500000000000003e-01
	-1.035169750115000e-04
	5.263107663021002e-05

 56	5.600000000000003e-01
	4.288368449086700e+00
	5.000000000000000e+00
	5.600000000000003e-01
	-1.035050865588541e-04
	5.261918926558113e-05

 57	5.700000000000003e-01
	4.288368480970698e+00
	5.000000000000000e+00
	5.700000000000003e-01
	-1.034931973736275e-04
	5.260730116851155e-05

 58	5.800000000000003e-01
	4.288368512858034e+00
	5.000000000000000e+00
	5.800000000000003e-01
	-1.034813074557439e-04
	5.259541233889426e-05

 59	5.900000000000003e-01
	4.288368544748680e+00
	5.000000000000000e+00
	5.900000000000003e-01
	-1.034694168051548e-04
	5.258352277667420e-05

 60	6.000000000000003e-01
	4.288368576642663e+00
	5.000000000000000e+00
	6.000000000000003e-01
	-1.034575254217698e-04
	5.257163248172960e-05

 61	6.100000000000003e-01
	4.288368608539963e+00
	5.000000000000000e+00
	6.100000000000003e-01
	-1.034456333054504e-04
	5.255974145398652e-05

 62	6.200000000000003e-01
	4.288368640440607e+00
	5.000000000000000e+00
	6.200000000000003e-01
	-1.034337404560715e-04
	5.254784969333296e-05

 63	6.300000000000003e-01
	4.288368672344564e+00
	5.000000000000000e+00
	6.300000000000003e-01
	-1.034218468736192e-04
	5.253595719970886e-05

 64	6.400000000000003e-01
	4.288368704251858e+00
	5.000000000000000e+00
	6.400000000000003e-01
	-1.034099525579826e-04
	5.252406397299029e-05

 65	6.500000000000004e-01
	4.288368736162473e+00
	5.000000000000000e+00
	6.500000000000004e-01
	-1.033980575090993e-04
	5.251217001311145e-05

 66	6.600000000000004e-01
	4.288368768076429e+00
	5.000000000000000e+00
	6.600000000000004e-01
	-1.033861617268025e-04
	5.250027531996044e-05

 67	6.700000000000004e-01
	4.288368799993713e+00
	5.000000000000000e+00
	6.700000000000004e-01
	-1.033742652110092e-04
	5.248837989345594e-05

 68	6.800000000000004e-01
	4.288368831914324e+00
	5.000000000000000e+00
	6.800000000000004e-01
	-1.033623679617401e-04
	5.247648373351015e-05

 69	6.900000000000004e-01
	4.288368863838280e+00
	5.000000000000000e+00
	6.900000000000004e-01
	-1.033504699787316e-04
	5.246458684000802e-05

 70	7.000000000000004e-01
	4.288368895765557e+00
	5.000000000000000e+00
	7.000000000000004e-01
	-1.033385712620322e-04
	5.245268921289577e-05

 71	7.100000000000004e-01
	4.288368927696172e+00
	5.000000000000000e+00
	7.100000000000004e-01
	-1.033266718114545e-04
	5.244079085204906e-05

 72	7.200000000000004e-01
	4.288368959630121e+00
	5.000000000000000e+00
	7.200000000000004e-01
	-1.033147716269570e-04
	5.242889175739523e-05

 73	7.300000000000004e-01
	4.288368991567398e+00
	5.000000000000000e+00
	7.300000000000004e-01
	-1.033028707084702e-04
	5.241699192883758e-05

 74	7.400000000000004e-01
	4.288369023508011e+00
	5.000000000000000e+00
	7.400000000000004e-01
	-1.032909690559039e-04
	5.240509136628341e-05

 75	7.500000000000004e-01
	4.288369055451962e+00
	5.000000000000000e+00
	7.500000000000004e-01
	-1.032790666690986e-04
	5.239319006964099e-05

 76	7.600000000000005e-01
	4.288369087399253e+00
	5.000000000000000e+00
	7.600000000000005e-01
	-1.032671635479640e-04
	5.238128803881112e-05

 77	7.700000000000005e-01
	4.288369119349872e+00
	5.000000000000000e+00
	7.700000000000005e-01
	-1.032552596925279e-04
	5.236938527372202e-05

 78	7.800000000000005e-01
	4.288369151303831e+00
	5.000000000000000e+00
	7.800000000000005e-01
	-1.032433551025752e-04
	5.235748177426377e-05

 79	7.900000000000005e-01
	4.288369183261133e+00
	5.000000000000000e+00
	7.900000000000005e-01
	-1.032314497780226e-04
	5.234557754034115e-05

 80	8.000000000000005e-01
	4.288369215221766e+00
	5.000000000000000e+00
	8.000000000000005e-01
	-1.032195437188355e-04
	5.233367257188588e-05

 81	8.100000000000005e-01
	4.288369247185747e+00
	5.000000000000000e+00
	8.100000000000005e-01
	-1.032076369248749e-04
	5.232176686877262e-05

 82	8.200000000000005e-01
	4.288369279153054e+00
	5.000000000000000e+00
	8.200000000000005e-01
	-1.031957293961272e-04
	5.230986043095235e-05

 83	8.300000000000005e-01
	4.288369311123706e+00
	5.000000000000000e+00
	8.300000000000005e-01
	-1.031838211324326e-04
	5.229795325829845e-05

 84	8.400000000000005e-01
	4.288369343097697e+00
	5.000000000000000e+00
	8.400000000000005e-01
	-1.031719121336941e-04
	5.228604535072981e-05

 85	8.500000000000005e-01
	4.288369375075042e+00
	5.000000000000000e+00
	8.500000000000005e-01
	-1.031600023998006e-04
	5.227413670814236e-05

 86	8.600000000000005e-01
	4.288369407055717e+00
	5.000000000000000e+00
	8.600000000000005e-01
	-1.031480919307312e-04
	5.226222733046844e-05

 87	8.700000000000006e-01
	4.288369439039732e+00
	5.000000000000000e+00
	8.700000000000006e-01
	-1.031361807263681e-04
	5.225031721760700e-05

 88	8.800000000000006e-01
	4.288369471027088e+00
	5.000000000000000e+00
	8.800000000000006e-01
	-1.031242687866071e-04
	5.223840636946610e-05

 89	8.900000000000006e-01
	4.288369503017792e+00
	5.000000000000000e+00
	8.900000000000006e-01
	-1.031123561113234e-04
	5.222649478594577e-05

 90	9.000000000000006e-01
	4.288369535011846e+00
	5.000000000000000e+00
	9.000000000000006e-01
	-1.031004427004892e-04
	5.221458246695019e-05

 91	9.100000000000006e-01
	4.288369567009232e+00
	5.000000000000000e+00
	9.100000000000006e-01
	-1.030885285539934e-04
	5.220266941240864e-05

 92	9.200000000000006e-01
	4.288369599009970e+00
	5.000000000000000e+00
	9.200000000000006e-01
	-1.030766136717043e-04
	5.219075562221229e-05

 93	9.300000000000006e-01
	4.288369631014048e+00
	5.000000000000000e+00
	9.300000000000006e-01
	-1.030646980536148e-04
	5.217884109627547e-05

 94	9.400000000000006e-01
	4.288369663021482e+00
	5.000000000000000e+00
	9.400000000000006e-01
	-1.030527816995377e-04
	5.216692583449845e-05

 95	9.500000000000006e-01
	4.288369695032253e+00
	5.000000000000000e+00
	9.500000000000006e-01
	-1.030408646094036e-04
	5.215500983680229e-05

 96	9.600000000000006e-01
	4.288369727046379e+00
	5.000000000000000e+00
	9.600000000000006e-01
	-1.030289467831569e-04
	5.214309310307358e-05

 97	9.700000000000006e-01
	4.288369759063849e+00
	5.000000000000000e+00
	9.700000000000006e-01
	-1.030170282206797e-04
	5.213117563324294e-05

 98	9.800000000000006e-01
	4.288369791084657e+00
	5.000000000000000e+00
	9.800000000000006e-01
	-1.030051089219372e-04
	5.211925742722428e-05

 99	9.900000000000007e-01
	4.288369823108821e+00
	5.000000000000000e+00
	9.900000000000007e-01
	-1.029931888867283e-04
	5.210733848489855e-05

 100	1.000000000000001e+00
	4.288369855136342e+00
	5.000000000000000e+00
	1.000000000000001e+00
	-1.029812681150391e-04
	5.209541880618097e-05

 101	1.010000000000001e+00
	4.288369887167205e+00
	5.000000000000000e+00
	1.010000000000001e+00
	-1.029693466067655e-04
	5.208349839098503e-05

 102	1.020000000000001e+00
	4.288369919201420e+00
	5.000000000000000e+00
	1.020000000000001e+00
	-1.029574243617756e-04
	5.207157723922441e-05

 103	1.030000000000001e+00
	4.288369951238986e+00
	5.000000000000000e+00
	1.030000000000001e+00
	-1.029455013800418e-04
	5.205965535079308e-05

 104	1.040000000000001e+00
	4.288369983279904e+00
	5.000000000000000e+00
	1.040000000000001e+00
	-1.029335776614529e-04
	5.204773272560886e-05

 105	1.050000000000001e+00
	4.288370015324173e+00
	5.000000000000000e+00
	1.050000000000001e+00
	-1.029216532058286e-04
	5.203580936357982e-05

 106	1.060000000000001e+00
	4.288370047371796e+00
	5.000000000000000e+00
	1.060000000000001e+00
	-1.029097280132382e-04
	5.202388526460273e-05

 107	1.070000000000001e+00
	4.288370079422770e+00
	5.000000000000000e+00
	1.070000000000001e+00
	-1.028978020834528e-04
	5.201196042860278e-05

 108	1.080000000000001e+00
	4.288370111477100e+00
	5.000000000000000e+00
	1.080000000000001e+00
	-1.028858754164516e-04
	5.200003485547004e-05

 109	1.090000000000001e+00
	4.288370143534780e+00
	5.000000000000000e+00
	1.090000000000001e+00
	-1.028739480121027e-04
	5.198810854512470e-05

 110	1.100000000000001e+00
	4.288370175595825e+00
	5.000000000000000e+00
	1.100000000000001e+00
	-1.028620198703228e-04
	5.197618149746269e-05

 111	1.110000000000001e+00
	4.288370207660207e+00
	5.000000000000000e+00
	1.110000000000001e+00
	-1.028500909910704e-04
	5.196425371241484e-05

 112	1.120000000000001e+00
	4.288370239727964e+00
	5.000000000000000e+00
	1.120000000000001e+00
	-1.028381613741580e-04
	5.195232518985537e-05

 113	1.130000000000001e+00
	4.288370271799071e+00
	5.000000000000000e+00
	1.130000000000001e+00
	-1.028262310195510e-04
	5.194039592971186e-05

 114	1.140000000000001e+00
	4.288370303873537e+00
	5.000000000000000e+00
	1.140000000000001e+00
	-1.028142999271800e-04
	5.192846593188522e-05

 115	1.150000000000001e+00
	4.288370335951356e+00
	5.000000000000000e+00
	1.150000000000001e+00
	-1.028023680969201e-04
	5.191653519630106e-05

 116	1.160000000000001e+00
	4.288370368032534e+00
	5.000000000000000e+00
	1.160000000000001e+00
	-1.027904355286671e-04
	5.190460372284794e-05

 117	1.170000000000001e+00
	4.288370400117075e+00
	5.000000000000000e+00
	1.170000000000001e+00
	-1.027785022223518e-04
	5.189267151143261e-05

 118	1.180000000000001e+00
	4.288370432204964e+00
	5.000000000000000e+00
	1.180000000000001e+00
	-1.027665681779186e-04
	5.188073856197809e-05

 119	1.190000000000001e+00
	4.288370464296232e+00
	5.000000000000000e+00
	1.190000000000001e+00
	-1.027546333951176e-04
	5.186880487436296e-05

 120	1.200000000000001e+00
	4.288370496390841e+00
	5.000000000000000e+00
	1.200000000000001e+00
	-1.027426978740878e-04
	5.185687044854275e-05

 121	1.210000000000001e+00
	4.288370528488814e+00
	5.000000000000000e+00
	1.210000000000001e+00
	-1.027307616146000e-04
	5.184493528438542e-05

 122	1.220000000000001e+00
	4.288370560590159e+00
	5.000000000000000e+00
	1.220000000000001e+00
	-1.027188246165295e-04
	5.183299938179816e-05

 123	1.230000000000001e+00
	4.288370592694862e+00
	5.000000000000000e+00
	1.230000000000001e+00
	-1.027068868798414e-04
	5.182106274070441e-05

 124	1.240000000000001e+00
	4.288370624802928e+00
	5.000000000000000e+00
	1.240000000000001e+00
	-1.026949484044457e-04
	5.180912536100380e-05

 125	1.250000000000001e+00
	4.288370656914357e+00
	5.000000000000000e+00
	1.250000000000001e+00
	-1.026830091902450e-04
	5.179718724261087e-05

 126	1.260000000000001e+00
	4.288370689029146e+00
	5.000000000000000e+00
	1.260000000000001e+00
	-1.026710692371702e-04
	5.178524838543087e-05

 127	1.270000000000001e+00
	4.288370721147298e+00
	5.000000000000000e+00
	1.270000000000001e+00
	-1.026591285450754e-04
	5.177330878937251e-05

 128	1.280000000000001e+00
	4.288370753268823e+00
	5.000000000000000e+00
	1.280000000000001e+00
	-1.026471871138634e-04
	5.176136845432694e-05

 129	1.290000000000001e+00
	4.288370785393713e+00
	5.000000000000000e+00
	1.290000000000001e+00
	-1.026352449434928e-04
	5.174942738021826e-05

 130	1.300000000000001e+00
	4.288370817521958e+00
	5.000000000000000e+00
	1.300000000000001e+00
	-1.026233020338801e-04
	5.173748556696256e-05

 131	1.310000000000001e+00
	4.288370849653580e+00
	5.000000000000000e+00
	1.310000000000001e+00
	-1.026113583848590e-04
	5.172554301443840e-05

 132	1.320000000000001e+00
	4.288370881788563e+00
	5.000000000000000e+00
	1.320000000000001e+00
	-1.025994139964084e-04
	5.171359972257986e-05

 133	1.330000000000001e+00
	4.288370913926919e+00
	5.000000000000000e+00
	1.330000000000001e+00
	-1.025874688683898e-04
	5.170165569127550e-05

 134	1.340000000000001e+00
	4.288370946068643e+00
	5.000000000000000e+00
	1.340000000000001e+00
	-1.025755230007128e-04
	5.168971092043878e-05

 135	1.350000000000001e+00
	4.288370978213729e+00
	5.000000000000000e+00
	1.350000000000001e+00
	-1.025635763933289e-04
	5.167776540998818e-05

 136	1.360000000000001e+00
	4.288371010362188e+00
	5.000000000000000e+00
	1.360000000000001e+00
	-1.025516290460993e-04
	5.166581915981528e-05

 137	1.370000000000001e+00
	4.288371042514028e+00
	5.000000000000000e+00
	1.370000000000001e+00
	-1.025396809589268e-04
	5.165387216982489e-05

 138	1.380000000000001e+00
	4.288371074669226e+00
	5.000000000000000e+00
	1.380000000000001e+00
	-1.025277321317769e-04
	5.164192443993915e-05

 139	1.390000000000001e+00
	4.288371106827793e+00
	5.000000000000000e+00
	1.390000000000001e+00
	-1.025157825644829e-04
	5.162997597006570e-05

 140	1.400000000000001e+00
	4.288371138989746e+00
	5.000000000000000e+00
	1.400000000000001e+00
	-1.025038322569963e-04
	5.161802676009112e-05

 141	1.410000000000001e+00
	4.288371171155054e+00
	5.000000000000000e+00
	1.410000000000001e+00
	-1.024918812092546e-04
	5.160607680994842e-05

 142	1.420000000000001e+00
	4.288371203323751e+00
	5.000000000000000e+00
	1.420000000000001e+00
	-1.024799294210774e-04
	5.159412611952267e-05

 143	1.430000000000001e+00
	4.288371235495809e+00
	5.000000000000000e+00
	1.430000000000001e+00
	-1.024679768924230e-04
	5.158217468873775e-05

 144	1.440000000000001e+00
	4.288371267671246e+00
	5.000000000000000e+00
	1.440000000000001e+00
	-1.024560236232014e-04
	5.157022251748721e-05

 145	1.450000000000001e+00
	4.288371299850053e+00
	5.000000000000000e+00
	1.450000000000001e+00
	-1.024440696133569e-04
	5.155826960569383e-05

 146	1.460000000000001e+00
	4.288371332032249e+00
	5.000000000000000e+00
	1.460000000000001e+00
	-1.024321148626745e-04
	5.154631595323728e-05

 147	1.470000000000001e+00
	4.288371364217803e+00
	5.000000000000000e+00
	1.470000000000001e+00
	-1.024201593712235e-04
	5.153436156006552e-05

 148	1.480000000000001e+00
	4.288371396406744e+00
	5.000000000000000e+00
	1.480000000000001e+00
	-1.024082031387610e-04
	5.152240642604627e-05

 149	1.490000000000001e+00
	4.288371428599055e+00
	5.000000000000000e+00
	1.490000000000001e+00
	-1.023962461652941e-04
	5.151045055111058e-05

 150	1.500000000000001e+00
	4.288371460794754e+00
	5.000000000000000e+00
	1.500000000000001e+00
	-1.023842884506840e-04
	5.149849393514590e-05

 151	1.510000000000001e+00
	4.288371492993815e+00
	5.000000000000000e+00
	1.510000000000001e+00
	-1.023723299948820e-04
	5.148653657808806e-05

 152	1.520000000000001e+00
	4.288371525196266e+00
	5.000000000000000e+00
	1.520000000000001e+00
	-1.023603707977147e-04
	5.147457847982126e-05

 153	1.530000000000001e+00
	4.288371557402094e+00
	5.000000000000000e+00
	1.530000000000001e+00
	-1.023484108591891e-04
	5.146261964024705e-05

 154	1.540000000000001e+00
	4.288371589611303e+00
	5.000000000000000e+00
	1.540000000000001e+00
	-1.023364501790899e-04
	5.145066005929301e-05

 155	1.550000000000001e+00
	4.288371621823885e+00
	5.000000000000000e+00
	1.550000000000001e+00
	-1.023244887574520e-04
	5.143869973685874e-05

 156	1.560000000000001e+00
	4.288371654039848e+00
	5.000000000000000e+00
	1.560000000000001e+00
	-1.023125265941158e-04
	5.142673867284493e-05

 157	1.570000000000001e+00
	4.288371686259203e+00
	5.000000000000000e+00
	1.570000000000001e+00
	-1.023005636889771e-04
	5.141477686716137e-05

 158	1.580000000000001e+00
	4.288371718481932e+00
	5.000000000000000e+00
	1.580000000000001e+00
	-1.022886000419734e-04
	5.140281431971526e-05

 159	1.590000000000001e+00
	4.288371750708039e+00
	5.000000000000000e+00
	1.590000000000001e+00
	-1.022766356530216e-04
	5.139085103042116e-05

 160	1.600000000000001e+00
	4.288371782937539e+00
	5.000000000000000e+00
	1.600000000000001e+00
	-1.022646705219482e-04
	5.137888699916502e-05

 161	1.610000000000001e+00
	4.288371815170417e+00
	5.000000000000000e+00
	1.610000000000001e+00
	-1.022527046487670e-04
	5.136692222587700e-05

 162	1.620000000000001e+00
	4.288371847406683e+00
	5.000000000000000e+00
	1.620000000000001e+00
	-1.022407380332976e-04
	5.135495671044826e-05

 163	1.630000000000001e+00
	4.288371879646331e+00
	5.000000000000000e+00
	1.630000000000001e+00
	-1.022287706755054e-04
	5.134299045279076e-05

 164	1.640000000000001e+00
	4.288371911889372e+00
	5.000000000000000e+00
	1.640000000000001e+00
	-1.022168025752862e-04
	5.133102345280605e-05

 165	1.650000000000001e+00
	4.288371944135786e+00
	5.000000000000000e+00
	1.650000000000001e+00
	-1.022048337325360e-04
	5.131905571042214e-05

 166	1.660000000000001e+00
	4.288371976385591e+00
	5.000000000000000e+00
	1.660000000000001e+00
	-1.021928641471853e-04
	5.130708722552065e-05

 167	1.670000000000001e+00
	4.288372008638784e+00
	5.000000000000000e+00
	1.670000000000001e+00
	-1.021808938190816e-04
	5.129511799802002e-05

 168	1.680000000000001e+00
	4.288372040895368e+00
	5.000000000000000e+00
	1.680000000000001e+00
	-1.021689227481831e-04
	5.128314802781923e-05

 169	1.690000000000001e+00
	4.288372073155332e+00
	5.000000000000000e+00
	1.690000000000001e+00
	-1.021569509343928e-04
	5.127117731483543e-05

 170	1.700000000000001e+00
	4.288372105418688e+00
	5.000000000000000e+00
	1.700000000000001e+00
	-1.021449783775788e-04
	5.125920585897191e-05

 171	1.710000000000001e+00
	4.288372137685433e+00
	5.000000000000000e+00
	1.710000000000001e+00
	-1.021330050777064e-04
	5.124723366013153e-05

 172	1.720000000000001e+00
	4.288372169955571e+00
	5.000000000000000e+00
	1.720000000000001e+00
	-1.021210310346368e-04
	5.123526071821975e-05

 173	1.730000000000001e+00
	4.288372202229101e+00
	5.000000000000000e+00
	1.730000000000001e+00
	-1.021090562482868e-04
	5.122328703313812e-05

 174	1.740000000000001e+00
	4.288372234506016e+00
	5.000000000000000e+00
	1.740000000000001e+00
	-1.020970807185662e-04
	5.121131260481552e-05

 175	1.750000000000001e+00
	4.288372266786324e+00
	5.000000000000000e+00
	1.750000000000001e+00
	-1.020851044453708e-04
	5.119933743313789e-05

 176	1.760000000000001e+00
	4.288372299070031e+00
	5.000000000000000e+00
	1.760000000000001e+00
	-1.020731274286313e-04
	5.118736151801112e-05

 177	1.770000000000001e+00
	4.288372331357112e+00
	5.000000000000000e+00
	1.770000000000001e+00
	-1.020611496682783e-04
	5.117538485937276e-05

 178	1.780000000000001e+00
	4.288372363647605e+00
	5.000000000000000e+00
	1.780000000000001e+00
	-1.020491711641244e-04
	5.116340745707319e-05

 179	1.790000000000001e+00
	4.288372395941482e+00
	5.000000000000000e+00
	1.790000000000001e+00
	-1.020371919161905e-04
	5.115142931107208e-05

 180	1.800000000000001e+00
	4.288372428238756e+00
	5.000000000000000e+00
	1.800000000000001e+00
	-1.020252119242615e-04
	5.113945042124974e-05

 181	1.810000000000001e+00
	4.288372460539429e+00
	5.000000000000000e+00
	1.810000000000001e+00
	-1.020132311883304e-04
	5.112747078751074e-05

 182	1.820000000000001e+00
	4.288372492843491e+00
	5.000000000000000e+00
	1.820000000000001e+00
	-1.020012497083070e-04
	5.111549040977530e-05

 183	1.830000000000001e+00
	4.288372525150956e+00
	5.000000000000000e+00
	1.830000000000001e+00
	-1.019892674840595e-04
	5.110350928793023e-05

 184	1.840000000000001e+00
	4.288372557461813e+00
	5.000000000000000e+00
	1.840000000000001e+00
	-1.019772845154698e-04
	5.109152742190830e-05

 185	1.850000000000001e+00
	4.288372589776066e+00
	5.000000000000000e+00
	1.850000000000001e+00
	-1.019653008025173e-04
	5.107954481159459e-05

 186	1.860000000000001e+00
	4.288372622093718e+00
	5.000000000000000e+00
	1.860000000000001e+00
	-1.019533163450700e-04
	5.106756145690800e-05

 187	1.870000000000001e+00
	4.288372654414768e+00
	5.000000000000000e+00
	1.870000000000001e+00
	-1.019413311430170e-04
	5.105557735774835e-05

 188	1.880000000000001e+00
	4.288372686739216e+00
	5.000000000000000e+00
	1.880000000000001e+00
	-1.019293451963374e-04
	5.104359251401677e-05

 189	1.890000000000001e+00
	4.288372719067066e+00
	5.000000000000000e+00
	1.890000000000001e+00
	-1.019173585048300e-04
	5.103160692562824e-05

 190	1.900000000000001e+00
	4.288372751398313e+00
	5.000000000000000e+00
	1.900000000000001e+00
	-1.019053710684670e-04
	5.101962059248823e-05

 191	1.910000000000001e+00
	4.288372783732965e+00
	5.000000000000000e+00
	1.910000000000001e+00
	-1.018933828871374e-04
	5.100763351450349e-05

 192	1.920000000000001e+00
	4.288372816071009e+00
	5.000000000000000e+00
	1.920000000000001e+00
	-1.018813939607788e-04
	5.099564569157992e-05

 193	1.930000000000001e+00
	4.288372848412468e+00
	5.000000000000000e+00
	1.930000000000001e+00
	-1.018694042892315e-04
	5.098365712360780e-05

 194	1.940000000000002e+00
	4.288372880757325e+00
	5.000000000000000e+00
	1.940000000000002e+00
	-1.018574138724609e-04
	5.097166781051383e-05

 195	1.950000000000002e+00
	4.288372913105582e+00
	5.000000000000000e+00
	1.950000000000002e+00
	-1.018454227103352e-04
	5.095967775219611e-05

 196	1.960000000000002e+00
	4.288372945457247e+00
	5.000000000000000e+00
	1.960000000000002e+00
	-1.018334308028127e-04
	5.094768694856484e-05

 197	1.970000000000002e+00
	4.288372977812307e+00
	5.000000000000000e+00
	1.970000000000002e+00
	-1.018214381497615e-04
	5.093569539953288e-05

 198	1.980000000000002e+00
	4.288373010170772e+00
	5.000000000000000e+00
	1.980000000000002e+00
	-1.018094447510984e-04
	5.092370310499266e-05

 199	1.990000000000002e+00
	4.288373042532655e+00
	5.000000000000000e+00
	1.990000000000002e+00
	-1.017974506066568e-04
	5.091171006484140e-05

 200	2.000000000000001e+00
	4.288373074897931e+00
	5.000000000000000e+00
	2.000000000000001e+00
	-1.017854557164716e-04
	5.089971627901318e-05

 201	2.010000000000001e+00
	4.288373107266617e+00
	5.000000000000000e+00
	2.010000000000001e+00
	-1.017734600803760e-04
	5.088772174739178e-05

 202	2.020000000000001e+00
	4.288373139638709e+00
	5.000000000000000e+00
	2.020000000000001e+00
	-1.017614636982869e-04
	5.087572646989783e-05

 203	2.030000000000001e+00
	4.288373172014215e+00
	5.000000000000000e+00
	2.030000000000001e+00
	-1.017494665700794e-04
	5.086373044641988e-05

 204	2.040000000000000e+00
	4.288373204393122e+00
	5.000000000000000e+00
	2.040000000000000e+00
	-1.017374686957187e-04
	5.085173367687813e-05

 205	2.050000000000000e+00
	4.288373236775434e+00
	5.000000000000000e+00
	2.050000000000000e+00
	-1.017254700750800e-04
	5.083973616118670e-05

 206	2.060000000000000e+00
	4.288373269161164e+00
	5.000000000000000e+00
	2.060000000000000e+00
	-1.017134707080661e-04
	5.082773789922028e-05

 207	2.070000000000000e+00