Title: monte carlo simulation plot
Date: Mon May  2 08:53:01  2022
Plotname: monte_carlo
Flags: real
No. Variables: 101
No. Points: 27
Variables:
	0	voltage_sweep	voltage
	1	output_current_0	notype
	2	output_current_1	notype
	3	output_current_2	notype
	4	output_current_3	notype
	5	output_current_4	notype
	6	output_current_5	notype
	7	output_current_6	notype
	8	output_current_7	notype
	9	output_current_8	notype
	10	output_current_9	notype
	11	output_current_10	notype
	12	output_current_11	notype
	13	output_current_12	notype
	14	output_current_13	notype
	15	output_current_14	notype
	16	output_current_15	notype
	17	output_current_16	notype
	18	output_current_17	notype
	19	output_current_18	notype
	20	output_current_19	notype
	21	output_current_20	notype
	22	output_current_21	notype
	23	output_current_22	notype
	24	output_current_23	notype
	25	output_current_24	notype
	26	output_current_25	notype
	27	output_current_26	notype
	28	output_current_27	notype
	29	output_current_28	notype
	30	output_current_29	notype
	31	output_current_30	notype
	32	output_current_31	notype
	33	output_current_32	notype
	34	output_current_33	notype
	35	output_current_34	notype
	36	output_current_35	notype
	37	output_current_36	notype
	38	output_current_37	notype
	39	output_current_38	notype
	40	output_current_39	notype
	41	output_current_40	notype
	42	output_current_41	notype
	43	output_current_42	notype
	44	output_current_43	notype
	45	output_current_44	notype
	46	output_current_45	notype
	47	output_current_46	notype
	48	output_current_47	notype
	49	output_current_48	notype
	50	output_current_49	notype
	51	output_current_50	notype
	52	output_current_51	notype
	53	output_current_52	notype
	54	output_current_53	notype
	55	output_current_54	notype
	56	output_current_55	notype
	57	output_current_56	notype
	58	output_current_57	notype
	59	output_current_58	notype
	60	output_current_59	notype
	61	output_current_60	notype
	62	output_current_61	notype
	63	output_current_62	notype
	64	output_current_63	notype
	65	output_current_64	notype
	66	output_current_65	notype
	67	output_current_66	notype
	68	output_current_67	notype
	69	output_current_68	notype
	70	output_current_69	notype
	71	output_current_70	notype
	72	output_current_71	notype
	73	output_current_72	notype
	74	output_current_73	notype
	75	output_current_74	notype
	76	output_current_75	notype
	77	output_current_76	notype
	78	output_current_77	notype
	79	output_current_78	notype
	80	output_current_79	notype
	81	output_current_80	notype
	82	output_current_81	notype
	83	output_current_82	notype
	84	output_current_83	notype
	85	output_current_84	notype
	86	output_current_85	notype
	87	output_current_86	notype
	88	output_current_87	notype
	89	output_current_88	notype
	90	output_current_89	notype
	91	output_current_90	notype
	92	output_current_91	notype
	93	output_current_92	notype
	94	output_current_93	notype
	95	output_current_94	notype
	96	output_current_95	notype
	97	output_current_96	notype
	98	output_current_97	notype
	99	output_current_98	notype
	100	output_current_99	notype
Values:
 0	1.300000000000000e+00
	-8.775644143657613e-05
	-3.503240362731641e-05
	-3.386865150313556e-04
	-1.466878766891166e-04
	-1.871781089499147e-04
	-3.100847009718244e-05
	-3.261061776518859e-05
	-3.443993831439562e-05
	-1.243286545764277e-04
	-5.996022255094768e-05
	-1.122391008259727e-04
	-6.835241790972835e-05
	-2.911037201222544e-04
	-2.619995149652499e-04
	-8.995365259958921e-05
	-2.966115742776554e-04
	-8.370501730983748e-05
	-4.707978928583656e-05
	-1.174591617546239e-04
	-4.811340518703910e-05
	-5.856418605273972e-05
	-1.378470688290223e-04
	-3.833272241293706e-05
	-1.234846235681486e-04
	-1.565904550124286e-04
	-4.666961261889924e-05
	-1.146776115908132e-04
	-7.023041436599042e-05
	-6.533183065718373e-05
	-8.110931804666821e-05
	-4.053698479319912e-05
	-2.806270190183757e-05
	-9.420874670651447e-05
	-5.865579679950605e-05
	-8.977719696129371e-05
	-6.215774553050557e-05
	-7.930378445944464e-05
	-2.692160418205081e-04
	-3.081686034828168e-05
	-7.775114189631505e-05
	-8.186346739380568e-05
	-1.276316201163918e-04
	-1.278279968854046e-04
	-1.679430036878593e-04
	-7.402336209272331e-05
	-1.478962434291187e-04
	-1.904781653586096e-04
	-1.169301721420934e-04
	-9.638775801817934e-05
	-4.548216653559728e-04
	-6.636301751183904e-05
	-4.420821131043140e-05
	-1.054718899023976e-04
	-1.635941304298227e-04
	-4.238441325341014e-05
	-7.537746468666562e-05
	-7.311844359148001e-05
	-1.304919696604179e-04
	-9.229634244378726e-05
	-1.316361073963601e-04
	-5.027956263142785e-05
	-5.511850914921568e-05
	-4.535374636613354e-05
	-8.940383502964444e-05
	-5.939523655892898e-05
	-3.755436569358173e-04
	-5.011422700429424e-05
	-1.453113970296960e-04
	-4.445466304098256e-05
	-3.746257210696102e-05
	-8.447872653152833e-05
	-1.016807675384424e-04
	-8.046885380252888e-05
	-1.057252267504249e-04
	-1.635466840080313e-04
	-2.216576878641408e-05
	-7.639018887936611e-05
	-8.739222063028351e-05
	-2.994199528073838e-04
	-7.515140983474500e-05
	-7.217869661332865e-05
	-9.230846122199043e-05
	-4.492492285297633e-04
	-1.984481687051370e-04
	-6.747762158060278e-05
	-3.559096550462271e-05
	-9.417781008172477e-05
	-4.342149007973556e-04
	-9.691028838784699e-05
	-1.403028322861932e-04
	-1.800949094715731e-04
	-2.957808997727795e-04
	-8.889767871486653e-05
	-1.246837156090863e-04
	-7.945366500144990e-05
	-1.068429658981906e-04
	-4.739887258728426e-05
	-2.102108491615351e-04
	-3.325991912439541e-05
	-7.950770207140745e-05

 1	1.250000000000000e+00
	9.531495306811747e+00
	1.083327160546774e+01
	8.411147452124565e+00
	8.802497617014463e+00
	9.502625249827382e+00
	1.066228239191783e+01
	9.819689156350362e+00
	1.039790313604651e+01
	1.024888484957862e+01
	8.701054735596111e+00
	1.146282613611205e+01
	9.853711964169250e+00
	7.960470735045343e+00
	8.623922459290949e+00
	9.860644303660761e+00
	7.849710725079143e+00
	1.089943585993796e+01
	9.822688408040250e+00
	8.492478020104537e+00
	1.094282586721392e+01
	8.769820422672991e+00
	1.030542995184448e+01
	1.124490026892157e+01
	9.046240968871126e+00
	8.186649759481766e+00
	1.039440309351814e+01
	8.722144698598660e+00
	9.525534217026763e+00
	1.084813138862691e+01
	9.090161666598304e+00
	1.048305855900263e+01
	1.134297718443852e+01
	9.271959876823356e+00
	1.006419467893850e+01
	1.031942828448682e+01
	1.001088182488782e+01
	9.685419255947830e+00
	8.294074890262664e+00
	1.102103394755131e+01
	9.648610693483752e+00
	8.904993937259437e+00
	9.916197207503370e+00
	8.526791031973017e+00
	9.802038083493118e+00
	1.031909872556847e+01
	8.010040023807754e+00
	8.338226407488989e+00
	9.027520530795977e+00
	1.028947771613284e+01
	6.752085945362865e+00
	9.385281852667717e+00
	9.872121200286097e+00
	9.039711304450853e+00
	8.260913105020583e+00
	1.098774081156493e+01
	9.451042728292423e+00
	9.523223452387667e+00
	9.834773907915414e+00
	1.032447185223993e+01
	9.512918450245261e+00
	1.030012717094042e+01
	9.689137595092664e+00
	1.132917770951900e+01
	9.649058649326744e+00
	1.011427012658156e+01
	7.614569534282120e+00
	9.703609694997409e+00
	9.543761759938860e+00
	9.318459115326833e+00
	9.563891584735920e+00
	9.819640625571575e+00
	1.054943347061649e+01
	1.034727039799432e+01
	1.089873796121868e+01
	9.100597530357392e+00
	1.107561718288481e+01
	9.113559533693946e+00
	9.898583907558526e+00
	8.431729302816638e+00
	9.218863985327365e+00
	1.092020888084858e+01
	8.169287361772543e+00
	8.475907309416376e+00
	7.791643612266395e+00
	9.189975307519367e+00
	9.948329458629290e+00
	8.994314713120596e+00
	7.193609380277966e+00
	9.276680803694571e+00
	8.936403893308743e+00
	8.933476197571858e+00
	8.566766990265352e+00
	8.676511543668532e+00
	8.658270210461575e+00
	1.044191798474673e+01
	9.176746509831444e+00
	9.703010633913250e+00
	8.066582780228522e+00
	1.036566615170934e+01
	9.093933407261588e+00

 2	1.200000000000000e+00
	1.801315086261222e+01
	2.029208067412915e+01
	1.600873509779760e+01
	1.671794300855695e+01
	1.795749306438780e+01
	1.999455402698939e+01
	1.853102156138464e+01
	1.953762943336440e+01
	1.926559728056406e+01
	1.654381550085450e+01
	2.135309272687869e+01
	1.858365383344438e+01
	1.519829204971635e+01
	1.639385812079140e+01
	1.859309156527610e+01
	1.499736814526784e+01
	2.039809416098416e+01
	1.853128046946928e+01
	1.616377732834473e+01
	2.047935745319628e+01
	1.666413913282722e+01
	1.936430205775122e+01
	2.099362083815429e+01
	1.715151489942298e+01
	1.561269227898514e+01
	1.952921261503268e+01
	1.657739471363400e+01
	1.800438136007401e+01
	2.030967436463319e+01
	1.723361154682724e+01
	1.968568049441535e+01
	2.116841023721248e+01
	1.755214497105263e+01
	1.895265845798739e+01
	1.939082089232351e+01
	1.885829518763656e+01
	1.828743645762359e+01
	1.580299463524340e+01
	2.061403990513775e+01
	1.822035353186242e+01
	1.690343172796715e+01
	1.868486658385474e+01
	1.622480727283562e+01
	1.848174876859562e+01
	1.939632111467703e+01
	1.529366593363874e+01
	1.588204152613544e+01
	1.711351630761257e+01
	1.933886388734386e+01
	1.299526383124225e+01
	1.775857156526093e+01
	1.861605612011978e+01
	1.714353592705952e+01
	1.574317939560745e+01
	2.055689872695497e+01
	1.787333975696850e+01
	1.799924447184109e+01
	1.854293590056481e+01
	1.940050508276049e+01
	1.798081628985940e+01
	1.936166642534922e+01
	1.829534643627354e+01
	2.113876074475709e+01
	1.821921979032167e+01
	1.904001840699046e+01
	1.457173455021612e+01
	1.831964755998018e+01
	1.803164633969352e+01
	1.764289307578260e+01
	1.807498093902389e+01
	1.851833709928894e+01
	1.978764284101898e+01
	1.943847392289755e+01
	2.038656109088931e+01
	1.724518950906246e+01
	2.071419162937536e+01
	1.727424826692813e+01
	1.865782718433497e+01
	1.604653475834094e+01
	1.746030229903385e+01
	2.042787486889602e+01
	1.558264243267508e+01
	1.612495920696577e+01
	1.489735774572545e+01
	1.741135835591542e+01
	1.875309067061928e+01
	1.706272414307534e+01
	1.380377714904971e+01
	1.756061596293714e+01
	1.695449341068732e+01
	1.695025594607592e+01
	1.628954832468520e+01
	1.649475284789767e+01
	1.646008954808102e+01
	1.960805887439142e+01
	1.738519513082076e+01
	1.832218660328261e+01
	1.539262161084020e+01
	1.948402424508658e+01
	1.724043874181845e+01

 3	1.150000000000000e+00
	2.544072207467159e+01
	2.836826298753536e+01
	2.279122905697378e+01
	2.374312187527995e+01
	2.536119859581059e+01
	2.798947256958759e+01
	2.612698927877220e+01
	2.741199688255716e+01
	2.704599300186288e+01
	2.352387119028887e+01
	2.966550722759967e+01
	2.618425193487081e+01
	2.171180435705188e+01
	2.330744278708366e+01
	2.619243733949358e+01
	2.144138793046886e+01
	2.848907520653504e+01
	2.611996505718110e+01
	2.301079513484725e+01
	2.860158030209333e+01
	2.367919087173658e+01
	2.717234120083300e+01
	2.923838580778677e+01
	2.431258878261193e+01
	2.227550747145460e+01
	2.739751954392499e+01
	2.356203805956264e+01
	2.543205032072993e+01
	2.837806821586646e+01
	2.442614729146822e+01
	2.760045471905800e+01
	2.946693627921791e+01
	2.483708186573771e+01
	2.665954830663323e+01
	2.720957815933751e+01
	2.653672544933490e+01
	2.580082626734261e+01
	2.252444990969989e+01
	2.877028981775921e+01
	2.571061124730101e+01
	2.399159998735202e+01
	2.630242775200934e+01
	2.309114661886097e+01
	2.603600402210091e+01
	2.722545473908327e+01
	2.184834081674970e+01
	2.262920398248512e+01
	2.425559219086247e+01
	2.714345850540105e+01
	1.872767388678021e+01
	2.511527141718086e+01
	2.622620641428786e+01
	2.430734274335594e+01
	2.244463739032080e+01
	2.869877612546963e+01
	2.526234226560026e+01
	2.542382635400660e+01
	2.612071626927927e+01
	2.722286888010104e+01
	2.539931848394121e+01
	2.717899987682380e+01
	2.581332594864044e+01
	2.942001979096796e+01
	2.570656067197533e+01
	2.677087824630138e+01
	2.086977873387162e+01
	2.584288775028375e+01
	2.545995647385523e+01
	2.496826308010956e+01
	2.552802971483338e+01
	2.609181796623446e+01
	2.771004091556804e+01
	2.726911912760916e+01
	2.845942299199711e+01
	2.443079874557877e+01
	2.890606437998093e+01
	2.447803429105619e+01
	2.627316976833941e+01
	2.284276934879704e+01
	2.472058240393041e+01
	2.851765498771775e+01
	2.223734106175115e+01
	2.294555325047898e+01
	2.131490955275509e+01
	2.465972476939078e+01
	2.640780061623780e+01
	2.420147375641296e+01
	1.982883989594419e+01
	2.484823893382461e+01
	2.405146395149179e+01
	2.404712216133023e+01
	2.316642420406123e+01
	2.345143748517338e+01
	2.340248397489255e+01
	2.749219197784904e+01
	2.462145152782105e+01
	2.585145298662252e+01
	2.197599409979557e+01
	2.734734607672765e+01
	2.443558312692864e+01

 4	1.100000000000000e+00
	3.181131398989970e+01
	3.505638181441895e+01
	2.875830476873503e+01
	2.987580443647507e+01
	3.171185122389087e+01
	3.464216805308239e+01
	3.260197848188638e+01
	3.401589016661585e+01
	3.358808844381583e+01
	2.963759533310215e+01
	3.639937992820467e+01
	3.265147343124350e+01
	2.750027908176699e+01
	2.936343897060241e+01
	3.265538571439741e+01
	2.718108771093707e+01
	3.516848090780655e+01
	3.258440696581521e+01
	2.903124524752140e+01
	3.530444687991447e+01
	2.981205724879592e+01
	3.372751040551591e+01
	3.597511059805604e+01
	3.052733152087046e+01
	2.817323121133181e+01
	3.399450841424112e+01
	2.967324481811893e+01
	3.180536090067890e+01
	3.504965785239116e+01
	3.066459777904405e+01
	3.422215177523603e+01
	3.623299768314419e+01
	3.112450800418862e+01
	3.318076174993771e+01
	3.377328804539566e+01
	3.304236323458006e+01
	3.222177494879158e+01
	2.845723675943862e+01
	3.548414084060146e+01
	3.211618423701844e+01
	3.016673329116724e+01
	3.276710302507453e+01
	2.912375625983648e+01
	3.246355392955385e+01
	3.380233926643383e+01
	2.767226240693544e+01
	2.857852848213959e+01
	3.045271698726799e+01
	3.370070539709209e+01
	2.394820503683753e+01
	3.145196965282857e+01
	3.269851463666125e+01
	3.052802751549199e+01
	2.836414518928260e+01
	3.540769960771193e+01
	3.161475333876085e+01
	3.179406118762932e+01
	3.256604851170218e+01
	3.378848386563493e+01
	3.176541084828725e+01
	3.374856061626142e+01
	3.223916271325833e+01
	3.616808565112296e+01
	3.210863108376758e+01
	3.330225744153231e+01
	2.650788860926847e+01
	3.226951024081718e+01
	3.182644645392872e+01
	3.129062511569641e+01
	3.191907220774308e+01
	3.253742339295656e+01
	3.431459599893913e+01
	3.383694568608129e+01
	3.511654824769808e+01
	3.065585255474716e+01
	3.564468814014430e+01
	3.072193837887573e+01
	3.274172416436734e+01
	2.881993371757637e+01
	3.099710724244198e+01
	3.518737093359493e+01
	2.813133973718525e+01
	2.893744993322602e+01
	2.704282364984702e+01
	3.093172070110740e+01
	3.290753389423914e+01
	3.040781172521340e+01
	2.526803809769769e+01
	3.113719397239423e+01
	3.022559425169217e+01
	3.022198360780348e+01
	2.919662621689409e+01
	2.954413708071250e+01
	2.948338405704557e+01
	3.409032343722413e+01
	3.088275032718133e+01
	3.228608637266322e+01
	2.781546599205792e+01
	3.394988853008558e+01
	3.067647314245674e+01

 5	1.050000000000000e+00
	3.712473239591359e+01
	4.035809156692711e+01
	3.391109934888738e+01
	3.511536974998633e+01
	3.701026804137455e+01
	3.995403126084767e+01
	3.795351025126232e+01
	3.934923437533462e+01
	3.889466843723117e+01
	3.488276822643708e+01
	4.156637854815012e+01
	3.798462990849669e+01
	3.256403570061445e+01
	3.456235317777882e+01
	3.798206265722423e+01
	3.221675560619247e+01
	4.044006742569229e+01
	3.792351774717438e+01
	3.422413374826725e+01
	4.059067050616585e+01
	3.506135659062169e+01
	3.903273522859745e+01
	4.120974945116905e+01
	3.579554889097339e+01
	3.330506271206511e+01
	3.932042181520583e+01
	3.490965835038426e+01
	3.712379952762533e+01
	4.032816870672531e+01
	3.594771189533515e+01
	3.955091679595877e+01
	4.147164402777464e+01
	3.641444354372238e+01
	3.851613540668776e+01
	3.908452619766009e+01
	3.837520585254356e+01
	3.754941572367770e+01
	3.360140571390092e+01
	4.075822163898766e+01
	3.743679958804688e+01
	3.542777023183446e+01
	3.808083698933029e+01
	3.432192132601518e+01
	3.776659683965696e+01
	3.912761474677141e+01
	3.276456651118650e+01
	3.373014474703277e+01
	3.570584800048886e+01
	3.901290583755790e+01
	2.865618046981699e+01
	3.676762680887612e+01
	3.803233483229505e+01
	3.580433132940875e+01
	3.350172036441614e+01
	4.068602812536386e+01
	3.692978220383144e+01
	3.710972864541723e+01
	3.788033674707783e+01
	3.909921565214080e+01
	3.707870669397055e+01
	3.907159486150066e+01
	3.757190022381663e+01
	4.138876091422253e+01
	3.742597262238693e+01
	3.863362864813284e+01
	3.148607140788227e+01
	3.759870440905779e+01
	3.713164284651401e+01
	3.660825833392829e+01
	3.724683975801975e+01
	3.785588500552074e+01
	3.960528440381545e+01
	3.914481724340323e+01
	4.036519442804712e+01
	3.592080002527112e+01
	4.093198041842106e+01
	3.600495513582207e+01
	3.806417479337008e+01
	3.397909088274074e+01
	3.628944794846619e+01
	4.044285124275176e+01
	3.326364433279605e+01
	3.410196292501720e+01
	3.208043906745566e+01
	3.622605203246307e+01
	3.825090727759082e+01
	3.568079685226924e+01
	3.012126452748383e+01
	3.642740621915240e+01
	3.547698802701393e+01
	3.547451687574659e+01
	3.438099930327780e+01
	3.477188892219308e+01
	3.470218951677744e+01
	3.940377870766142e+01
	3.616840254129679e+01
	3.762428750673629e+01
	3.291102896237530e+01
	3.929075677456358e+01
	3.596215841285949e+01

 6	1.000000000000000e+00
	4.138676814531865e+01
	4.429415765643506e+01
	3.825353245897495e+01
	3.946437104130609e+01
	4.126319861426299e+01
	4.394292658318599e+01
	4.218656054464612e+01
	4.342482113154017e+01
	4.298014114746391e+01
	3.925995739903162e+01
	4.521282960743373e+01
	4.219090564222127e+01
	3.690535672275100e+01
	3.890749114134561e+01
	4.218059214039570e+01
	3.655030393987977e+01
	4.432824924237495e+01
	4.214382771155394e+01
	3.859090481347525e+01
	4.448408513628411e+01
	3.942875097569373e+01
	4.310314434743945e+01
	4.497629770432837e+01
	4.012099912949099e+01
	3.767211428284045e+01
	4.338840710868216e+01
	3.927282014192217e+01
	4.139277097413318e+01
	4.423705280922068e+01
	4.027823948044994e+01
	4.360078156874568e+01
	4.521802699569677e+01
	4.071173256936489e+01
	4.267504716225462e+01
	4.315817215617382e+01
	4.254437704057263e+01
	4.178964103457132e+01
	3.795911570035940e+01
	4.461800515424244e+01
	4.167880824244873e+01
	3.977708425116177e+01
	4.225418323867275e+01
	3.868745628142012e+01
	4.195520028515953e+01
	4.321398120008587e+01
	3.712605314770169e+01
	3.808639272413197e+01
	4.001998531765849e+01
	4.309432441108591e+01
	3.285157887442482e+01
	4.106637479588614e+01
	4.223506387893475e+01
	4.013881195710062e+01
	3.785949502297563e+01
	4.455823980048967e+01
	4.121215141919695e+01
	4.137654955290566e+01
	4.207295232326364e+01
	4.316926047313158e+01
	4.134464680772610e+01
	4.316131367744914e+01
	4.181735876045470e+01
	4.511813175108511e+01
	4.166582443071551e+01
	4.277446227609065e+01
	3.580581145421185e+01
	4.183656813044152e+01
	4.138218775779561e+01
	4.092426923447209e+01
	4.151613471974547e+01
	4.205575503067062e+01
	4.360134814437671e+01
	4.320826530875227e+01
	4.423373286071642e+01
	4.023029627020134e+01
	4.479340061609954e+01
	4.033019447883873e+01
	4.224955891659623e+01
	3.832400156553672e+01
	4.060173778340894e+01
	4.431128794104298e+01
	3.763514995645465e+01
	3.844331146197251e+01
	3.642850692545216e+01
	4.054578943742246e+01
	4.244505196980401e+01
	4.002318708190805e+01
	3.438942505095072e+01
	4.072363308869789e+01
	3.980938882164418e+01
	3.980796650057770e+01
	3.872338524376663e+01
	3.913657572262316e+01
	3.906112983164409e+01
	4.344746462663931e+01
	4.048208120273778e+01
	4.187104210250309e+01
	3.726441628761133e+01
	4.338145272762655e+01
	4.029572174363781e+01

 7	9.500000000000001e-01
	4.461716652876522e+01
	4.693645469186904e+01
	4.179425249904657e+01
	4.293196615687538e+01
	4.449107431079062e+01
	4.667025401611756e+01
	4.532455628098093e+01
	4.628892825443059e+01
	4.588819494080548e+01
	4.277552780067458e+01
	4.747621993871336e+01
	4.529682590015145e+01
	4.052958495929659e+01
	4.240779338012782e+01
	4.527863108382750e+01
	4.018667131282846e+01
	4.691258937456096e+01
	4.527051259662056e+01
	4.213783281178875e+01
	4.706514951328023e+01
	4.292222224452696e+01
	4.598479972813831e+01
	4.738378142179035e+01
	4.351595581804499e+01
	4.127908907562206e+01
	4.624521153806039e+01
	4.277027375384959e+01
	4.463148282303031e+01
	4.685213949712371e+01
	4.366772555127493e+01
	4.642220277341087e+01
	4.758827539765075e+01
	4.403197837150636e+01
	4.569082734513763e+01
	4.604033932791105e+01
	4.558172995017132e+01
	4.496459598485867e+01
	4.153658723003977e+01
	4.715054067198541e+01
	4.486429817420379e+01
	4.322433810231819e+01
	4.531852816513958e+01
	4.222719227558861e+01
	4.505816137056291e+01
	4.610522853671912e+01
	4.076055874582362e+01
	4.165389154732035e+01
	4.340868314210321e+01
	4.598958244831589e+01
	3.653541434513890e+01
	4.436419469757259e+01
	4.533386254663963e+01
	4.354236323612101e+01
	4.144357697843178e+01
	4.710847025584069e+01
	4.447934186460785e+01
	4.461405127482781e+01
	4.517243610970803e+01
	4.604440754409837e+01
	4.458228398519673e+01
	4.606148122459405e+01
	4.499761491554315e+01
	4.747374222815927e+01
	4.485117269567574e+01
	4.575965852075402e+01
	3.947089324886441e+01
	4.500580283449428e+01
	4.459894401905745e+01
	4.425276937132560e+01
	4.474608603933388e+01
	4.516446776260414e+01
	4.636147255148619e+01
	4.607500925123348e+01
	4.680568240929598e+01
	4.359810069715390e+01
	4.731803438628979e+01
	4.370981852935807e+01
	4.532731425638367e+01
	4.186313451306849e+01
	4.394822332378333e+01
	4.687625411863732e+01
	4.125028904273078e+01
	4.197065904839952e+01
	4.009026128911383e+01
	4.390375562002649e+01
	4.551834971621869e+01
	4.344569773615187e+01
	3.807518592341050e+01
	4.404144016226176e+01
	4.323420485940251e+01
	4.323315486637531e+01
	4.223294053711858e+01
	4.264587824910106e+01
	4.256816560729371e+01
	4.627165319646748e+01
	4.383713700160073e+01
	4.504779892496079e+01
	4.088064906514286e+01
	4.626581933583896e+01
	4.368905791013000e+01

 8	9.000000000000001e-01
	4.686871827861609e+01
	4.847227102253030e+01
	4.455132036102881e+01
	4.554178815410889e+01
	4.674648050978698e+01
	4.829794146180726e+01
	4.743600842023986e+01
	4.806765024096735e+01
	4.773176319733028e+01
	4.544855241734712e+01
	4.866601388798923e+01
	4.737572552105892e+01
	4.344770786021072e+01
	4.508411439757705e+01
	4.735084502197518e+01
	4.313586473755426e+01
	4.839481140067993e+01
	4.737384821620351e+01
	4.488131948903753e+01
	4.853953774297646e+01
	4.556355015002643e+01
	4.779676222164725e+01
	4.869466811922265e+01
	4.601186475602101e+01
	4.413782033726022e+01
	4.801765666805698e+01
	4.542267382581615e+01
	4.689184659805281e+01
	4.836611730528202e+01
	4.614786618814993e+01
	4.815190685629965e+01
	4.886122020744676e+01
	4.641559068193149e+01
	4.765464068280287e+01
	4.785082868700086e+01
	4.757393251743629e+01
	4.713557401775240e+01
	4.434817080072864e+01
	4.857676367664735e+01
	4.705295406908319e+01
	4.579542449181795e+01
	4.735473685495519e+01
	4.495847962704847e+01
	4.714855131371224e+01
	4.791949099844004e+01
	4.367777201345641e+01
	4.444786319193869e+01
	4.590442190040918e+01
	4.781517668230604e+01
	3.971049968180493e+01
	4.670491637757934e+01
	4.740362693759094e+01
	4.604490261441189e+01
	4.426795741160970e+01
	4.855171361218321e+01
	4.677898714248443e+01
	4.687437236910031e+01
	4.725296726891645e+01
	4.784541599560160e+01
	4.684301808817416e+01
	4.788849483710668e+01
	4.717380420487128e+01
	4.873627501105534e+01
	4.704228628894303e+01
	4.768577585287804e+01
	4.248889378372946e+01
	4.716900842867150e+01
	4.683635384222524e+01
	4.663368797965342e+01
	4.699002579248859e+01
	4.725458358003265e+01
	4.803534749030897e+01
	4.786842878789056e+01
	4.828440623163883e+01
	4.605851640889750e+01
	4.873260149294194e+01
	4.617672236794843e+01
	4.737578630316570e+01
	4.461461779139942e+01
	4.636638024916695e+01
	4.834426758334271e+01
	4.412048839065466e+01
	4.470327941949351e+01
	4.307352874580194e+01
	4.633536996610506e+01
	4.755083763795307e+01
	4.597695137782925e+01
	4.118363833910529e+01
	4.642137429181525e+01
	4.577978212848949e+01
	4.577780257780076e+01
	4.493003611938558e+01
	4.531993489397998e+01
	4.524351108292201e+01
	4.801025716804556e+01
	4.626922093458577e+01
	4.721591537659004e+01
	4.377108035587718e+01
	4.806534253298410e+01
	4.617412049267265e+01

 9	8.500000000000001e-01
	4.826383470445377e+01
	4.923982391675900e+01
	4.656232110683339e+01
	4.734916023355778e+01
	4.814961168470391e+01
	4.913280749205425e+01
	4.868083620900347e+01
	4.901892149215912e+01
	4.874322296455108e+01
	4.732619541242256e+01
	4.921802835348619e+01
	4.859407352766909e+01
	4.568191444696065e+01
	4.698280423388336e+01
	4.856483367927326e+01
	4.541759673752026e+01
	4.912707853593680e+01
	4.861467373891534e+01
	4.685956280792386e+01
	4.926500927506525e+01
	4.740471319523336e+01
	4.878132990672468e+01
	4.931625087155074e+01
	4.768202641281373e+01
	4.627492100035379e+01
	4.896452015014461e+01
	4.727951095408038e+01
	4.829485674828923e+01
	4.912074265032008e+01
	4.779478186443635e+01
	4.906372213568872e+01
	4.945852933320970e+01
	4.795649996534868e+01
	4.876589678140704e+01
	4.883345186632786e+01
	4.871176768456165e+01
	4.844477590204782e+01
	4.642512860160051e+01
	4.927009216030144e+01
	4.838225519807104e+01
	4.755191161020232e+01
	4.853897889568943e+01
	4.692125773094911e+01
	4.838678003705175e+01
	4.890140737562007e+01
	4.589922473865712e+01
	4.650145719320778e+01
	4.758041314303809e+01
	4.881012118946497e+01
	4.238207551556579e+01
	4.819243964267086e+01
	4.861356995308243e+01
	4.771841668899980e+01
	4.636288956080782e+01
	4.925595675293101e+01
	4.822320696268616e+01
	4.827838225699593e+01
	4.847870659986718e+01
	4.881905643501147e+01
	4.824689158745843e+01
	4.888268928389220e+01
	4.848766942421035e+01
	4.932791856924720e+01
	4.837611383640616e+01
	4.876284631297363e+01
	4.487464514393749e+01
	4.847072106060847e+01
	4.821919368652640e+01
	4.816320600010298e+01
	4.837340366436364e+01
	4.848819428840889e+01
	4.890956323092477e+01
	4.883745738501759e+01
	4.901853814067054e+01
	4.769042426282222e+01
	4.941718980306666e+01
	4.780933797233794e+01
	4.856865010763648e+01
	4.661659479034672e+01
	4.794410022521632e+01
	4.906940974621558e+01
	4.627161148308093e+01
	4.668147882322079e+01
	4.539508250912166e+01
	4.792565498697653e+01
	4.872311002126887e+01
	4.768493392910830e+01
	4.372419362171770e+01
	4.795794165948178e+01
	4.751130182047191e+01
	4.750669262069908e+01
	4.685873893485719e+01
	4.720595853049785e+01
	4.713392786274159e+01
	4.893139251750667e+01
	4.786278207305202e+01
	4.851937012999557e+01
	4.595982051180687e+01
	4.903216709473330e+01
	4.782685741077980e+01

 10	8.000000000000000e-01
	4.902216300936362e+01
	4.960074871227980e+01
	4.790282522352705e+01
	4.846915814033816e+01
	4.891594564653196e+01
	4.952891096627991e+01
	4.932492037937786e+01
	4.947879056536137e+01
	4.924060870226609e+01
	4.851051650550632e+01
	4.947727931627229e+01
	4.922196305067774e+01
	4.727646732848663e+01
	4.819939227823807e+01
	4.919068228818998e+01
	4.707074029379086e+01
	4.947064824156831e+01
	4.925779880893754e+01
	4.815420649540098e+01
	4.960492804535841e+01
	4.855528682590844e+01
	4.926252817266479e+01
	4.960693121894484e+01
	4.867300195866765e+01
	4.774694174366427e+01
	4.942197630375703e+01
	4.844602960788922e+01
	4.905871928981092e+01
	4.947568909355934e+01
	4.876176989051758e+01
	4.950116681951314e+01
	4.973786847814443e+01
	4.883406888682115e+01
	4.932301375469236e+01
	4.931337419611186e+01
	4.928635232122423e+01
	4.913698600243895e+01
	4.783255936741842e+01
	4.959438877559811e+01
	4.909044536908439e+01
	4.862105416683887e+01
	4.914678129431681e+01
	4.820014468420557e+01
	4.903260499686973e+01
	4.937932454258812e+01
	4.747039751399609e+01
	4.788348451460875e+01
	4.858066512111584e+01
	4.929715779198630e+01
	4.455965950002675e+01
	4.902258363810596e+01
	4.923605503232334e+01
	4.870937814721675e+01
	4.779106003115121e+01
	4.958540991108380e+01
	4.901898148263405e+01
	4.904361260200854e+01
	4.911445192669436e+01
	4.929313212609116e+01
	4.901121978445849e+01
	4.936868512511923e+01
	4.918330043865546e+01
	4.960472353060367e+01
	4.908890899612585e+01
	4.929795405340356e+01
	4.665692587712297e+01
	4.915790195970460e+01
	4.896920788306195e+01
	4.902681609128946e+01
	4.912104189183447e+01
	4.912880399556908e+01
	4.932815743390799e+01
	4.930965479626429e+01
	4.936427727873912e+01
	4.864873959017750e+01
	4.973711229462803e+01
	4.876430271041541e+01
	4.918086570619067e+01
	4.794620501506795e+01
	4.885205082931824e+01
	4.941020547209881e+01
	4.775871836899543e+01
	4.798629615947842e+01
	4.708948208230154e+01
	4.884247766843757e+01
	4.931915056224467e+01
	4.870827590424786e+01
	4.571413308466100e+01
	4.883161527156204e+01
	4.856047004653306e+01
	4.855196697243515e+01
	4.810885354610797e+01
	4.840359737202569e+01
	4.833761853046694e+01
	4.937465359791150e+01
	4.878389028591513e+01
	4.920614277020884e+01
	4.749649861857271e+01
	4.950043311604255e+01
	4.879953076462017e+01

 11	7.500000000000001e-01
	4.940361394026175e+01
	4.978294366051904e+01
	4.870542417884506e+01
	4.908820625406404e+01
	4.930258140219851e+01
	4.972675676480647e+01
	4.964241359638135e+01
	4.970576917009398e+01
	4.948560310522640e+01
	4.917541748940594e+01
	4.961463988252827e+01
	4.953154745203218e+01
	4.831443994389787e+01
	4.889559368256608e+01
	4.949946999839149e+01
	4.816851642722327e+01
	4.964514567569012e+01
	4.957532360918323e+01
	4.891089295328650e+01
	4.977786998951693e+01
	4.919624860198009e+01
	4.949974055694231e+01
	4.975832001214841e+01
	4.920067291520403e+01
	4.866091377079607e+01
	4.964783991807128e+01
	4.909878141499112e+01
	4.944318474249054e+01
	4.965513728332339e+01
	4.927180416356336e+01
	4.971776014649350e+01
	4.988459018681916e+01
	4.928769701328039e+01
	4.959672027418443e+01
	4.954998244721762e+01
	4.956885785069483e+01
	4.948081446838832e+01
	4.868993460056478e+01
	4.976060369851114e+01
	4.944351273165220e+01
	4.920228351700158e+01
	4.944686449410876e+01
	4.894432021652798e+01
	4.935290260928669e+01
	4.961473786927275e+01
	4.847928621531418e+01
	4.871879863677510e+01
	4.911680068828096e+01
	4.953711947257322e+01
	4.626039613943279e+01
	4.944576426394549e+01
	4.954300327030556e+01
	4.923538671194275e+01