Title: monte carlo simulation plot
Date: Tue Dec 26 20:08:56  2023
Plotname: monte_carlo
Flags: real
No. Variables: 101
No. Points: 27
Variables:
	0	voltage_sweep	voltage
	1	output_current_0	notype
	2	output_current_1	notype
	3	output_current_2	notype
	4	output_current_3	notype
	5	output_current_4	notype
	6	output_current_5	notype
	7	output_current_6	notype
	8	output_current_7	notype
	9	output_current_8	notype
	10	output_current_9	notype
	11	output_current_10	notype
	12	output_current_11	notype
	13	output_current_12	notype
	14	output_current_13	notype
	15	output_current_14	notype
	16	output_current_15	notype
	17	output_current_16	notype
	18	output_current_17	notype
	19	output_current_18	notype
	20	output_current_19	notype
	21	output_current_20	notype
	22	output_current_21	notype
	23	output_current_22	notype
	24	output_current_23	notype
	25	output_current_24	notype
	26	output_current_25	notype
	27	output_current_26	notype
	28	output_current_27	notype
	29	output_current_28	notype
	30	output_current_29	notype
	31	output_current_30	notype
	32	output_current_31	notype
	33	output_current_32	notype
	34	output_current_33	notype
	35	output_current_34	notype
	36	output_current_35	notype
	37	output_current_36	notype
	38	output_current_37	notype
	39	output_current_38	notype
	40	output_current_39	notype
	41	output_current_40	notype
	42	output_current_41	notype
	43	output_current_42	notype
	44	output_current_43	notype
	45	output_current_44	notype
	46	output_current_45	notype
	47	output_current_46	notype
	48	output_current_47	notype
	49	output_current_48	notype
	50	output_current_49	notype
	51	output_current_50	notype
	52	output_current_51	notype
	53	output_current_52	notype
	54	output_current_53	notype
	55	output_current_54	notype
	56	output_current_55	notype
	57	output_current_56	notype
	58	output_current_57	notype
	59	output_current_58	notype
	60	output_current_59	notype
	61	output_current_60	notype
	62	output_current_61	notype
	63	output_current_62	notype
	64	output_current_63	notype
	65	output_current_64	notype
	66	output_current_65	notype
	67	output_current_66	notype
	68	output_current_67	notype
	69	output_current_68	notype
	70	output_current_69	notype
	71	output_current_70	notype
	72	output_current_71	notype
	73	output_current_72	notype
	74	output_current_73	notype
	75	output_current_74	notype
	76	output_current_75	notype
	77	output_current_76	notype
	78	output_current_77	notype
	79	output_current_78	notype
	80	output_current_79	notype
	81	output_current_80	notype
	82	output_current_81	notype
	83	output_current_82	notype
	84	output_current_83	notype
	85	output_current_84	notype
	86	output_current_85	notype
	87	output_current_86	notype
	88	output_current_87	notype
	89	output_current_88	notype
	90	output_current_89	notype
	91	output_current_90	notype
	92	output_current_91	notype
	93	output_current_92	notype
	94	output_current_93	notype
	95	output_current_94	notype
	96	output_current_95	notype
	97	output_current_96	notype
	98	output_current_97	notype
	99	output_current_98	notype
	100	output_current_99	notype
Values:
 0	1.300000000000000e+00
	-9.481657473053851e-05
	-4.265858499774566e-05
	-2.888945506429597e-04
	-1.425558039669372e-04
	-2.181655377186953e-04
	-3.727028061173421e-05
	-3.506424317567536e-05
	-3.993928451850870e-05
	-1.573021261858099e-04
	-5.201980513014348e-05
	-1.665355318924977e-04
	-7.802746643248426e-05
	-2.283358883914399e-04
	-2.533543028149232e-04
	-1.025847254365608e-04
	-2.344200372011995e-04
	-1.170633000258103e-04
	-5.028568186848936e-05
	-1.076187004095397e-04
	-5.991646415126617e-05
	-4.745012022189243e-05
	-1.754298858958059e-04
	-5.030479505174767e-05
	-1.230213812764003e-04
	-1.292039773781450e-04
	-5.790792151350033e-05
	-1.071721426881833e-04
	-7.210967239990040e-05
	-8.695079378728821e-05
	-8.275553853298590e-05
	-4.805527156759304e-05
	-3.481498769830615e-05
	-9.824869737218300e-05
	-6.630946833285911e-05
	-1.081356150456347e-04
	-7.022678272239347e-05
	-8.914452509500848e-05
	-2.316311292077655e-04
	-4.101250936083822e-05
	-8.630255884933824e-05
	-7.559377429577907e-05
	-1.451198224089456e-04
	-1.105010145885377e-04
	-2.029905618594618e-04
	-9.073160625594490e-05
	-1.200003360568580e-04
	-1.664371071519177e-04
	-1.185830496297502e-04
	-1.184223691330644e-04
	-2.697228881215485e-04
	-6.327966275976316e-05
	-4.969482464423081e-05
	-1.099252182334975e-04
	-1.363561000222724e-04
	-5.692649129862559e-05
	-7.763853102082940e-05
	-7.487061318145471e-05
	-1.501300750383905e-04
	-1.210734151824155e-04
	-1.453348934254972e-04
	-5.884492199070834e-05
	-5.734761276965372e-05
	-6.437879743192987e-05
	-9.243785945023397e-05
	-7.538215190949771e-05
	-2.661390934022290e-04
	-5.471479519458811e-05
	-1.659650056273776e-04
	-4.096174094359029e-05
	-3.842474949333763e-05
	-9.799922331965583e-05
	-1.338368721404137e-04
	-9.812703080647189e-05
	-1.461129654767301e-04
	-1.770486847407771e-04
	-2.660893727579605e-05
	-7.845962074481960e-05
	-1.009446415345394e-04
	-2.556501919881438e-04
	-7.218481368198582e-05
	-1.010160358139167e-04
	-7.020503102472819e-05
	-3.789872304871267e-04
	-1.444704876563119e-04
	-6.966401761010488e-05
	-3.967018727402127e-05
	-8.568648915407984e-05
	-2.624058522554540e-04
	-1.035333901944213e-04
	-1.365458579538625e-04
	-1.890627515654941e-04
	-2.746884681520401e-04
	-7.550768690856025e-05
	-1.119572316798934e-04
	-1.039392703849895e-04
	-1.141341431087906e-04
	-5.189212601286464e-05
	-1.724102943745365e-04
	-3.857979560817348e-05
	-7.239840324468894e-05

 1	1.250000000000000e+00
	2.599361632281069e+01
	2.815106682848775e+01
	2.407590039155486e+01
	2.466761758063672e+01
	2.580719006235743e+01
	2.791491096786752e+01
	2.649606017191691e+01
	2.747853232091743e+01
	2.711941897761555e+01
	2.462809742081323e+01
	2.898680630266520e+01
	2.648418793018206e+01
	2.318155849676505e+01
	2.431360556801043e+01
	2.651921315242195e+01
	2.290989196539889e+01
	2.801905307182884e+01
	2.655329210408605e+01
	2.410704226646527e+01
	2.828423518703993e+01
	2.493320439146858e+01
	2.720330771586663e+01
	2.877447650918158e+01
	2.515781407727916e+01
	2.359877518701842e+01
	2.733776204797214e+01
	2.454576767129367e+01
	2.606894052721576e+01
	2.805788323385905e+01
	2.518421601386926e+01
	2.757341453867718e+01
	2.900454608919731e+01
	2.555890048268859e+01
	2.691149984083291e+01
	2.733512119424894e+01
	2.682374252059236e+01
	2.618367333582367e+01
	2.376676733664706e+01
	2.830238158321036e+01
	2.617218176306085e+01
	2.498523402136819e+01
	2.668700881580319e+01
	2.428432189538823e+01
	2.637364184195773e+01
	2.722095197539576e+01
	2.323280148163083e+01
	2.386612768932872e+01
	2.513823323041682e+01
	2.723490654075317e+01
	2.061646629280926e+01
	2.590508377021614e+01
	2.657937218823042e+01
	2.502702708060724e+01
	2.377764053712074e+01
	2.819583143385401e+01
	2.590149353623450e+01
	2.607975888723607e+01
	2.649338024028960e+01
	2.716029722272043e+01
	2.587669537681622e+01
	2.733621820272258e+01
	2.635020003487545e+01
	2.870406912264256e+01
	2.632274989186265e+01
	2.677274829721021e+01
	2.250577748927861e+01
	2.630609165860456e+01
	2.592264004026151e+01
	2.583742146709117e+01
	2.614782756606149e+01
	2.645301674332815e+01
	2.760880784724931e+01
	2.738425924204285e+01
	2.819225115417365e+01
	2.514054931138272e+01
	2.860096749981999e+01
	2.523448702411099e+01
	2.659891189387559e+01
	2.411975658208470e+01
	2.558712499459680e+01
	2.816166674278475e+01
	2.371758983629561e+01
	2.421477190300489e+01
	2.288994016791043e+01
	2.536984961521750e+01
	2.670767342333527e+01
	2.518457979549041e+01
	2.171619721051850e+01
	2.552025099450926e+01
	2.497925685407236e+01
	2.481182050538891e+01
	2.426980996555160e+01
	2.464618489604955e+01
	2.450905611785757e+01
	2.733455312514677e+01
	2.528743798164111e+01
	2.625209113115562e+01
	2.335193920454011e+01
	2.738884378266845e+01
	2.539910816620750e+01

 2	1.200000000000000e+00
	4.114678782579651e+01
	4.308377833353930e+01
	3.917948080175634e+01
	3.983741172710123e+01
	4.091815852875699e+01
	4.287393838737704e+01
	4.170059160700686e+01
	4.252783716869602e+01
	4.209993851337149e+01
	3.986916068269772e+01
	4.353861080850022e+01
	4.161625384817638e+01
	3.821498750111903e+01
	3.943443922198829e+01
	4.163044744887913e+01
	3.790024727275826e+01
	4.286697037815881e+01
	4.171498897603820e+01
	3.926005306574207e+01
	4.317180545988439e+01
	4.018686338685788e+01
	4.217248540880694e+01
	4.350785675908547e+01
	4.033119693386093e+01
	3.871449853894669e+01
	4.236481591695166e+01
	3.973643719737061e+01
	4.124332801259262e+01
	4.291467150928721e+01
	4.037810040290537e+01
	4.260278745219296e+01
	4.377764678307333e+01
	4.072130890333571e+01
	4.201095350455167e+01
	4.231763833442356e+01
	4.192432298379644e+01
	4.133642703489475e+01
	3.887126044001786e+01
	4.316095027424513e+01
	4.131459020428191e+01
	4.019431786848882e+01
	4.174808262478492e+01
	3.945758864818370e+01
	4.142650267897029e+01
	4.225338636645523e+01
	3.830544043298065e+01
	3.897774388316768e+01
	4.028008057575284e+01
	4.222598271328912e+01
	3.514368252735718e+01
	4.111955686069910e+01
	4.170993482006426e+01
	4.021091643789318e+01
	3.889134845103635e+01
	4.307251766461073e+01
	4.108487072939336e+01
	4.124735061165376e+01
	4.157356362427707e+01
	4.214661470612960e+01
	4.103045955060163e+01
	4.235762643626379e+01
	4.152466968375055e+01
	4.343192448855171e+01
	4.146156921667338e+01
	4.185117409385292e+01
	3.744908680105088e+01
	4.146186486755736e+01
	4.104448180585612e+01
	4.108624969050186e+01
	4.134047800921636e+01
	4.154796753872217e+01
	4.250771843058651e+01
	4.235180381049683e+01
	4.294337314543137e+01
	4.027691830491530e+01
	4.351569236926353e+01
	4.042180045040269e+01
	4.168891619542661e+01
	3.923271513494621e+01
	4.078283009862141e+01
	4.294328742891762e+01
	3.887022004624325e+01
	3.932718887117784e+01
	3.792213606761824e+01
	4.056512761043546e+01
	4.185468463154679e+01
	4.040108333811833e+01
	3.651539476615118e+01
	4.067827049285440e+01
	4.014556274015320e+01
	3.996257319058803e+01
	3.938311802522028e+01
	3.985648225635421e+01
	3.968746129927488e+01
	4.232053884358974e+01
	4.045745082581313e+01
	4.143495870242292e+01
	3.841790044674561e+01
	4.247039112078438e+01
	4.062130253465988e+01

 3	1.150000000000000e+00
	4.731639656403893e+01
	4.817725759218537e+01
	4.630919558942619e+01
	4.670845206798322e+01
	4.712731764676230e+01
	4.806939530997006e+01
	4.770003666297249e+01
	4.796630255046730e+01
	4.760506183709712e+01
	4.685480217578829e+01
	4.805661840923820e+01
	4.754110581055293e+01
	4.580608116493308e+01
	4.644414582857976e+01
	4.751788899013537e+01
	4.560852700909515e+01
	4.792589697637587e+01
	4.764218349060864e+01
	4.643286805355862e+01
	4.818233097815365e+01
	4.701888947042029e+01
	4.763481666979381e+01
	4.823385573057489e+01
	4.694035332991793e+01
	4.615112090816491e+01
	4.783344623092434e+01
	4.670360706430371e+01
	4.740249210107364e+01
	4.796827830644799e+01
	4.699750611504745e+01
	4.798747380320955e+01
	4.847359450650679e+01
	4.711093890809661e+01
	4.772143887694057e+01
	4.774348480820340e+01
	4.767163883789491e+01
	4.741817208895292e+01
	4.618859731114581e+01
	4.813743634488748e+01
	4.738921888490511e+01
	4.694010290790668e+01
	4.751081491993423e+01
	4.655410080751584e+01
	4.731224504211061e+01
	4.777318416601325e+01
	4.591602431630072e+01
	4.624208717846599e+01
	4.685956230055486e+01
	4.769796775483739e+01
	4.381113052872535e+01
	4.740360953902310e+01
	4.759061410820713e+01
	4.690171358424228e+01
	4.621335186778472e+01
	4.810037206648583e+01
	4.733331703315157e+01
	4.739369431943155e+01
	4.743842943167806e+01
	4.764134656485425e+01
	4.725755099140721e+01
	4.782093411985662e+01
	4.755570238884447e+01
	4.817419804415204e+01
	4.746585987115172e+01
	4.759489818696380e+01
	4.536632646708408e+01
	4.749035625095134e+01
	4.721167903626831e+01
	4.744269836650175e+01
	4.748233404696344e+01
	4.744480309073346e+01
	4.775220368600890e+01
	4.774390528141520e+01
	4.785773666629925e+01
	4.684832408729731e+01
	4.845122468422058e+01
	4.700631518664983e+01
	4.751857058967607e+01
	4.634856691468174e+01
	4.719906257850785e+01
	4.789413372830939e+01
	4.628322166169880e+01
	4.638853659150003e+01
	4.570505876313677e+01
	4.708933289608932e+01
	4.769895335362401e+01
	4.705097612645211e+01
	4.478090541897971e+01
	4.708157593848183e+01
	4.684114622120414e+01
	4.672874153628833e+01
	4.640941734193778e+01
	4.679265022961010e+01
	4.665991312748780e+01
	4.775001956722549e+01
	4.699376421933923e+01
	4.751891231900493e+01
	4.594270304550396e+01
	4.797525458431588e+01
	4.716607523769754e+01

 4	1.100000000000000e+00
	4.900183559466455e+01
	4.941618093133420e+01
	4.857022485030890e+01
	4.878668550802392e+01
	4.883717546096816e+01
	4.934443066619345e+01
	4.929814040819692e+01
	4.933089610577660e+01
	4.900053597694208e+01
	4.899406502354569e+01
	4.911370430460242e+01
	4.911023238815884e+01
	4.842549917815318e+01
	4.862013180917911e+01
	4.907133791969346e+01
	4.833506544379973e+01
	4.915591281658832e+01
	4.920987178427642e+01
	4.871264595033252e+01
	4.939342325663808e+01
	4.906005181328117e+01
	4.901343486621128e+01
	4.935293152374953e+01
	4.886043447568412e+01
	4.862965592228145e+01
	4.921158525976119e+01
	4.883949428325165e+01
	4.908060740635261e+01
	4.919571360954833e+01
	4.892057126203858e+01
	4.933190851300062e+01
	4.958209149876630e+01
	4.890984429547530e+01
	4.919648438105745e+01
	4.910643740569515e+01
	4.916269132129725e+01
	4.906026736247078e+01
	4.858159445308378e+01
	4.933777643701711e+01
	4.902866036597849e+01
	4.893548665033804e+01
	4.901146599735861e+01
	4.877842860657143e+01
	4.886953233248191e+01
	4.917193025293955e+01
	4.853989383825797e+01
	4.859507318160858e+01
	4.876680500789931e+01
	4.907921186270148e+01
	4.767404846272878e+01
	4.914117115732871e+01
	4.913929048337533e+01
	4.886789022378809e+01
	4.860764618366126e+01
	4.931837130162965e+01
	4.905574952750874e+01
	4.906606147812680e+01
	4.898389105651574e+01
	4.903237321762268e+01
	4.897228086314133e+01
	4.919685369155109e+01
	4.917120196827433e+01
	4.929936746462561e+01
	4.907167184853810e+01
	4.908623543019297e+01
	4.828818837534794e+01
	4.910622483325633e+01
	4.889908419149560e+01
	4.921425443903809e+01
	4.914997137053962e+01
	4.900376534788462e+01
	4.904836376804812e+01
	4.909411215046899e+01
	4.903925315857642e+01
	4.875155726924776e+01
	4.963526292210696e+01
	4.891018118318054e+01
	4.904717251013810e+01
	4.859816176688847e+01
	4.900849686697087e+01
	4.908759746299202e+01
	4.873584826834039e+01
	4.860170161969952e+01
	4.848257552036213e+01
	4.895808654935968e+01
	4.922988899194042e+01
	4.898891919621548e+01
	4.808605262959352e+01
	4.888835373131721e+01
	4.881288321404234e+01
	4.874504974856745e+01
	4.859807974574512e+01
	4.890559463305473e+01
	4.880142985870354e+01
	4.911471202462790e+01
	4.887259662454679e+01
	4.915930415228149e+01
	4.850089362332631e+01
	4.936503729357535e+01
	4.904321728292291e+01

 5	1.050000000000000e+00
	4.948965632902564e+01
	4.979779641195448e+01
	4.921432037446535e+01
	4.937870557061939e+01
	4.933079516289754e+01
	4.973394446392519e+01
	4.976561525912165e+01
	4.974157956887278e+01
	4.941683647854446e+01
	4.960362172587440e+01
	4.945153494695896e+01
	4.956969468559481e+01
	4.918210509625900e+01
	4.923964591283490e+01
	4.952652807099604e+01
	4.912800061882255e+01
	4.953481207067324e+01
	4.966905861626334e+01
	4.936277505935855e+01
	4.976853329954553e+01
	4.964171979747727e+01
	4.942579765878849e+01
	4.970635652754712e+01
	4.940900455751782e+01
	4.934045273835737e+01
	4.962538115130776e+01
	4.944796273151191e+01
	4.956667337511784e+01
	4.957370050134337e+01
	4.947043713555369e+01
	4.973797934410343e+01
	4.993411159108160e+01
	4.942644090313777e+01
	4.963299870188245e+01
	4.951520496844670e+01
	4.960289794192843e+01
	4.953774380219052e+01
	4.926576132312926e+01
	4.971064923349478e+01
	4.950507756288930e+01
	4.950465460069019e+01
	4.945286133702879e+01
	4.941204704358992e+01
	4.932456609631122e+01
	4.959031293487633e+01
	4.929768846676387e+01
	4.926699324935870e+01
	4.931148035152572e+01
	4.949242953691466e+01
	4.894713424486753e+01
	4.964244783409698e+01
	4.959364045357268e+01
	4.942942903422322e+01
	4.929214810115573e+01
	4.969546501043011e+01
	4.955315365964656e+01
	4.955052018316020e+01
	4.943642211841740e+01
	4.944829137049945e+01
	4.946770683952536e+01
	4.960928504851858e+01
	4.964197889985658e+01
	4.965487511014895e+01
	4.953922143150977e+01
	4.952709760466107e+01
	4.915026849429838e+01
	4.957704568462826e+01
	4.938714255805794e+01
	4.972450946834611e+01
	4.963376941560273e+01
	4.945991634862021e+01
	4.944129454549119e+01
	4.949975851458420e+01
	4.940498787952066e+01
	4.929548502956814e+01
	5.000501113847783e+01
	4.945480847553564e+01
	4.949601541320327e+01
	4.923888254452797e+01
	4.952791703980753e+01
	4.945688650188212e+01
	4.943829194480314e+01
	4.923161203347973e+01
	4.929238346783847e+01
	4.949355388653327e+01
	4.968040006327924e+01
	4.954247270762529e+01
	4.909874957043959e+01
	4.940707903398032e+01
	4.937523787731414e+01
	4.931991270906277e+01
	4.922109057075609e+01
	4.950724559925606e+01
	4.941117876199053e+01
	4.952496923902976e+01
	4.941052256149121e+01
	4.963680528499541e+01
	4.923730022700703e+01
	4.978211973550445e+01
	4.958056739504720e+01

 6	1.000000000000000e+00
	4.969453267872608e+01
	4.997551400184267e+01
	4.945905574415925e+01
	4.961139005864486e+01
	4.953666498366295e+01
	4.991327657650948e+01
	4.996692365331033e+01
	4.992690768055794e+01
	4.960174436475454e+01
	4.984212168784256e+01
	4.961496708476374e+01
	4.976776706465229e+01
	4.945794167535329e+01
	4.947879445873094e+01
	4.972290362436227e+01
	4.941381146153240e+01
	4.971121897918810e+01
	4.986712017045637e+01
	4.961123424620985e+01
	4.994442151566407e+01
	4.987192711043437e+01
	4.960973603019680e+01
	4.987561979987940e+01
	4.962976376976513e+01
	4.960502260732691e+01
	4.981151963678789e+01
	4.968560510210454e+01
	4.977120652107075e+01
	4.974944029153671e+01
	4.969241749838618e+01
	4.992223225844423e+01
	5.010397318523044e+01
	4.963859893757083e+01
	4.982477577635154e+01
	4.969824377883819e+01
	4.979546084401317e+01
	4.974060029238649e+01
	4.952250095127155e+01
	4.988620857186883e+01
	4.970709250244620e+01
	4.973144859041646e+01
	4.964428306027114e+01
	4.965575663033825e+01
	4.951941068816624e+01
	4.977737175345005e+01
	4.957506765899608e+01
	4.952034066014327e+01
	4.953023491626341e+01
	4.967684804571548e+01
	4.937268237824787e+01
	4.985128281729742e+01
	4.979017146707933e+01
	4.965461573252627e+01
	4.954888157464917e+01
	4.987238147746795e+01
	4.976091224225508e+01
	4.975438634859195e+01
	4.963114388873736e+01
	4.963394813554088e+01
	4.967492835865600e+01
	4.979400664771594e+01
	4.984289593397938e+01
	4.982556136197414e+01
	4.973814195528576e+01
	4.972060704725931e+01
	4.945533668033585e+01
	4.977790750071085e+01
	4.959171718582623e+01
	4.993614668063334e+01
	4.983818241927670e+01
	4.965600959651404e+01
	4.961991066449941e+01
	4.968180082510175e+01
	4.957543841023655e+01
	4.951465722753505e+01
	5.018021348705132e+01
	4.967518306972421e+01
	4.969030800732084e+01
	4.948288944114834e+01
	4.974100910826434e+01
	4.962927224279844e+01
	4.970062646135909e+01
	4.947241566041674e+01
	4.958374066578799e+01
	4.971173417887658e+01
	4.987650730307013e+01
	4.976503034554315e+01
	4.944634942018232e+01
	4.961993278383270e+01
	4.959937154296393e+01
	4.954792778563873e+01
	4.946065999119221e+01
	4.974253206558883e+01
	4.964843372654449e+01
	4.970977908782745e+01
	4.962899438974711e+01
	4.984024656457236e+01
	4.950818977492600e+01
	4.996970617232848e+01
	4.979879782358171e+01

 7	9.500000000000001e-01
	4.981228309392568e+01
	5.008640208149697e+01
	4.958658049472120e+01
	4.973781736039443e+01
	4.965413601496329e+01
	5.002403280051238e+01
	5.008571745056690e+01
	5.003987260525714e+01
	4.971234905116681e+01
	4.997163855679013e+01
	4.971861292738748e+01
	4.988436904636816e+01
	4.959611441008325e+01
	4.960609747560810e+01
	4.983831573007747e+01
	4.955517419027826e+01
	4.982119873619354e+01
	4.998370694174297e+01
	4.974283354356466e+01
	5.005470578486014e+01
	4.999771266308520e+01
	4.972016730780439e+01
	4.998294381382880e+01
	4.975203324529554e+01
	4.974134178136695e+01
	4.992479494980804e+01
	4.981426298360974e+01
	4.988894803714932e+01
	4.985863357886370e+01
	4.981616850041701e+01
	5.003509119094404e+01
	5.021256595349674e+01
	4.975809588584311e+01
	4.993920093749639e+01
	4.980839708970935e+01
	4.990988647037009e+01
	4.985866326599406e+01
	4.965555019057800e+01
	4.999674746284516e+01
	4.982419002210522e+01
	4.985621188730114e+01
	4.975655310039077e+01
	4.978540886703192e+01
	4.963251988587781e+01
	4.989058630276710e+01
	4.971548358658493e+01
	4.965216252398761e+01
	4.965059785140948e+01
	4.978769301581220e+01
	4.955877357274829e+01
	4.997060785985347e+01
	4.990603370245896e+01
	4.977952376698097e+01
	4.968171053279253e+01
	4.998362801715995e+01
	4.987992296504474e+01
	4.987161892585799e+01
	4.974487545922118e+01
	4.974587963872072e+01
	4.979386525826544e+01
	4.990550502802400e+01
	4.996007363857087e+01
	4.993446352002766e+01
	4.985330242547993e+01
	4.983635120945143e+01
	4.960298124983241e+01
	4.989502128037362e+01
	4.970899197791201e+01
	5.005677560081506e+01
	4.995643815376184e+01
	4.977065919471637e+01
	4.972855832165689e+01
	4.979143843280090e+01
	4.968048144508288e+01
	4.963605756402997e+01
	5.029103763349273e+01
	4.979817013181552e+01
	4.980459098157062e+01
	4.961044194341227e+01
	4.986094703993225e+01
	4.973619733241678e+01
	4.983616150030851e+01
	4.959857080210793e+01
	4.972817766818070e+01
	4.983433800767687e+01
	4.999293841462075e+01
	4.988838037538537e+01
	4.960719923401005e+01
	4.973983407067454e+01
	4.972228814287879e+01
	4.967284838476669e+01
	4.958734888887810e+01
	4.986966716075256e+01
	4.977600043497375e+01
	4.982226550100111e+01
	4.975129454327151e+01
	4.995912443410758e+01
	4.964563581805236e+01
	5.008400918881956e+01
	4.992076566920443e+01

 8	9.000000000000001e-01
	4.989289446501958e+01
	5.016674480062041e+01
	4.966663712111961e+01
	4.982151676989795e+01
	4.973389619143242e+01
	5.010342906429074e+01
	5.016963014339588e+01
	5.012056581695867e+01
	4.978910134418668e+01
	5.005808198434939e+01
	4.979219160793991e+01
	4.996598380509589e+01
	4.968146667258880e+01
	4.968847892442528e+01
	4.991857183084692e+01
	4.964183474111001e+01
	4.990071788587343e+01
	5.006520746151732e+01
	4.982870300907850e+01
	5.013481881377662e+01
	5.008114515601090e+01
	4.979705533534728e+01
	5.006062547076176e+01
	4.983360454280600e+01
	4.982844323196635e+01
	5.000578595487637e+01
	4.989968970277228e+01
	4.996963613067328e+01
	4.993694966201482e+01
	4.989984556213805e+01
	5.011609679368136e+01
	5.029214092072383e+01
	4.983855326040794e+01
	5.001968998145055e+01
	4.988509309183063e+01
	4.999003188869067e+01
	4.994076150535839e+01
	4.974032349954480e+01
	5.007750052517593e+01
	4.990492561253012e+01
	4.993948055052226e+01
	4.983328673437278e+01
	4.986987084704695e+01
	4.970930989805231e+01
	4.997108810926099e+01
	4.980421738230712e+01
	4.973622741696274e+01
	4.972958581709761e+01
	4.986507453630428e+01
	4.966385187398468e+01
	5.005214542262455e+01
	4.998697190624962e+01
	4.986386710595066e+01
	4.976602657205805e+01
	5.006507604289958e+01
	4.996146073547175e+01
	4.995168355818825e+01
	4.982282789526334e+01
	4.982476991297752e+01
	4.987560991437986e+01
	4.998386538448019e+01
	5.004135513611433e+01
	5.001449310330745e+01
	4.993183927917092e+01
	4.991852660017225e+01
	4.969232968197752e+01
	4.997625805871824e+01
	4.978895310941110e+01
	5.013932447871196e+01
	5.003806300919950e+01
	4.984966564114098e+01
	4.980457220303764e+01
	4.986763277456136e+01
	4.975344786788388e+01
	4.971685218414270e+01
	5.037221980029550e+01
	4.988120454159362e+01
	4.988374214773749e+01
	4.969089857142757e+01
	4.994169486041569e+01
	4.981187713568556e+01
	4.992275747904606e+01
	4.967790586969082e+01
	4.981786793523731e+01
	4.991765580595904e+01
	5.007503847244670e+01
	4.997100312089872e+01
	4.970133334090314e+01
	4.982073620428017e+01
	4.980348580270987e+01
	4.975600332499672e+01
	4.966835888913813e+01
	4.995333440030447e+01
	4.985962871403589e+01
	4.990252211150214e+01
	4.983399946885750e+01
	5.004233456792733e+01
	4.973194611172750e+01
	5.016607046613806e+01
	5.000282680612612e+01

 9	8.500000000000001e-01
	4.994952278619940e+01
	5.022545094675334e+01
	4.971746004417172e+01
	4.987998983568701e+01
	4.978912582541732e+01
	5.016044827367018e+01
	5.023196651956076e+01
	5.017923119993747e+01
	4.984140633682087e+01
	5.012015728375033e+01
	4.984060648424629e+01
	5.002504706433115e+01
	4.973711512088808e+01
	4.974399858522393e+01
	4.997554910669529e+01
	4.969839427645647e+01
	4.995847859598523e+01
	5.012395293096505e+01
	4.988876441416770e+01
	5.019332113040810e+01
	5.013918417994521e+01
	4.984967167138694e+01
	5.011549418569962e+01
	4.988997350273829e+01
	4.988842466020099e+01
	5.006503248395862e+01
	4.996034985344497e+01
	5.002634066646953e+01
	4.999262699082320e+01
	4.995957759148791e+01
	5.017541036313276e+01
	5.034992245355092e+01
	4.989409650648052e+01
	5.007745568968080e+01
	4.993735126898862e+01
	5.004715726496266e+01
	5.000012244617096e+01
	4.979750398010057e+01
	5.013721870030506e+01
	4.996209690788272e+01
	4.999785170354252e+01
	4.988480716862365e+01
	4.992812880479005e+01
	4.976073044309689e+01
	5.002943942800314e+01
	4.986524665983260e+01
	4.979267622564308e+01
	4.978191850077960e+01
	4.991841951642066e+01
	4.973226375700932e+01
	5.010968319218057e+01
	5.004503041509501e+01
	4.992435646603336e+01
	4.982241442148816e+01
	5.012588867061283e+01
	5.001924587321231e+01
	5.000741517608895e+01
	4.987611838035252e+01
	4.988067887638716e+01
	4.993391468139123e+01
	5.003873547869343e+01
	5.009942152648587e+01
	5.007341750775632e+01
	4.998552505009564e+01
	4.997912021689516e+01
	4.975073873055404e+01
	5.003434093964285e+01
	4.984462067484752e+01
	5.019815027338856e+01
	5.009631523029316e+01
	4.990461355908931e+01
	4.985617633330693e+01
	4.991914972357581e+01
	4.980164211517498e+01
	4.977223681693326e+01
	5.043229597293843e+01
	4.994007378415831e+01
	4.993909287705732e+01
	4.974247214869056e+01
	4.999748941629674e+01
	4.986341922184651e+01
	4.998208172602510e+01
	4.972796440519573e+01
	4.987859568267305e+01
	4.997724067613059e+01
	5.013502022600531e+01
	5.002877338227719e+01
	4.976197949998692e+01
	4.987698075174709e+01
	4.985881505140165e+01
	4.981423482324095e+01
	4.972149559851142e+01
	5.001125752407496e+01
	4.991733531676786e+01
	4.996077360146776e+01
	4.989260299898728e+01
	5.010339182396142e+01
	4.978984302152733e+01
	5.022679062593517e+01
	5.006015019651906e+01

 10	8.000000000000000e-01
	4.998405800580663e+01
	5.026224592910968e+01
	4.974429399627763e+01
	4.991677554616061e+01
	4.982191363748470e+01
	5.019508808297088e+01
	5.027336051123348e+01
	5.021623675587430e+01
	4.987039697976225e+01
	5.016093606672830e+01
	4.986472067214299e+01
	5.006288797493406e+01
	4.976918741680567e+01
	4.977675348038038e+01
	5.001052132433447e+01
	4.973142900020267e+01
	4.999420177710461e+01
	5.016125415272899e+01
	4.992746740739378e+01
	5.022977513351417e+01
	5.017518924759347e+01
	4.987900489623669e+01
	5.014700042164770e+01
	4.992406114601622e+01
	4.992657180114121e+01
	5.010298906741001e+01
	5.000007647144216e+01
	5.006090727208449e+01
	5.002552799990962e+01
	4.999827987879581e+01
	5.021329186136614e+01
	5.038497570635783e+01
	4.992719422285109e+01
	5.011338914216149e+01
	4.996618030440208e+01
	5.008225368219517e+01
	5.003840913621349e+01
	4.983202344947856e+01
	5.017546620439601e+01
	4.999737385312096e+01
	5.003450594939459e+01
	4.991286597168482e+01
	4.996434299986137e+01
	4.978879617925994e+01
	5.006616066715154e+01
	4.990368445331739e+01
	4.982633282745353e+01
	4.981096380543017e+01
	4.994861031774162e+01
	4.977656522428769e+01
	5.014527289204699e+01
	5.008146595271651e+01
	4.996412517114276e+01
	4.985588900923810e+01
	5.016574034146502e+01
	5.005528026859199e+01
	5.004069947867431e+01
	4.990635290094085e+01
	4.991423313872910e+01
	4.997072664636492e+01
	5.007077675223516e+01
	5.013579516294220e+01
	5.011038487831229e+01
	5.001617527797850e+01
	5.001920235869957e+01
	4.978559978687717e+01
	5.007082371354349e+01
	4.987794955142299e+01
	5.023544947791846e+01
	5.013297632738465e+01
	4.993697613778279e+01
	4.988423070018990e+01
	4.994711484095060e+01
	4.982345718142884e+01
	4.980514744582138e+01
	5.047068385454889e+01
	4.997759860684084e+01
	4.997192954450105e+01
	4.977018349547856e+01
	5.003081200151242e+01
	4.989126477426592e+01
	5.001929488897640e+01
	4.975394800506619e+01
	4.991609919137679e+01
	5.001577559466297e+01
	5.017407490501692e+01
	5.006460485513370e+01
	4.979848976349928e+01
	4.991102588538469e+01
	4.989149807467594e+01
	4.985083028043332e+01
	4.975120610152561e+01
	5.004711601554537e+01
	4.995293732447761e+01
	4.999740294410687e+01
	4.992981047717083e+01
	5.014403808195666e+01
	4.982500670550819e+01
	5.026669954809478e+01
	5.009540263731412e+01

 11	7.500000000000001e-01
	4.999634559640920e+01
	5.027538197420966e+01
	4.975185348520743e+01
	4.993150572543377e+01
	4.983291680465918e+01
	5.020666818817917e+01
	5.029394004251397e+01
	5.022991505955281e+01
	4.987851848789298e+01
	5.018149080439371e+01
	4.987011274793147e+01
	5.007780918565526e+01
	4.978033759658906e+01
	4.978818594291736e+01
	5.002292995502535e+01
	4.974339326981200e+01
	5.000653548635600e+01
	5.017564506855604e+01
	4.994428510687377e+01
	5.024253370243125e+01
	5.018907727327802e+01
	4.988728884838052e+01
	5.015610571942864e+01
	4.993628823788169e+01
	4.994294103654153e+01
	5.011759094688227e+01
	5.001774100304350e+01
	5.007317925965625e+01
	5.003578556771583e+01
	5.001467215999099e+01
	5.022766954157444e+01
	5.039633621009045e+01
	4.993853293011911e+01
	5.012641634391524e+01
	4.997414954431675e+01
	5.009464161549694e+01
	5.005389695176459e+01
	4.984498919108002e+01
	5.018979635724357e+01
	5.001020283247072e+01
	5.004899302472757e+01
	4.992056588937221e+01
	4.997865995623029e+01
	4.979659340824589e+01
	5.007969586996426e+01
	4.992224219699455e+01
	4.983860011318567e+01
	4.981965509828247e+01
	4.995740175429020e+01
	4.980072856237462e+01
	5.015842369251794e+01
	5.009511692554694e+01
	4.998167160320821e+01