Title: transistors characterization pmos transistor simulation testbench
Date: Wed Oct 14 22:10:48  2020
Plotname: DC transfer characteristic
Flags: real
No. Variables: 41
No. Points: 182
Variables:
	0	neg_vgs	notype
	1	@m1[cbb]	capacitance
	2	@m1[cdb]	capacitance
	3	@m1[cdd]	capacitance
	4	@m1[cdg]	capacitance
	5	@m1[cds]	capacitance
	6	@m1[cgb]	capacitance
	7	@m1[cgd]	capacitance
	8	@m1[cgg]	capacitance
	9	@m1[cgs]	capacitance
	10	@m1[csb]	capacitance
	11	@m1[csd]	capacitance
	12	@m1[csg]	capacitance
	13	@m1[css]	capacitance
	14	@m1[gds]	admittance
	15	@m1[gm]	admittance
	16	@m1[gmbs]	admittance
	17	i(@m1[id])	current
	18	@m1[vbs]	voltage
	19	@m1[vds]	voltage
	20	@m1[vdsat]	voltage
	21	@m1[vgs]	voltage
	22	@m1[vth]	voltage
	23	index	notype dims=1
	24	m1#body	voltage
	25	m1#dbody	voltage
	26	m1#gate	voltage
	27	m1#sbody	voltage
	28	nb	voltage
	29	nbvec	voltage dims=14,13
	30	ng	voltage
	31	ns	voltage
	32	v-sweep	voltage
	33	i(vbs)	current
	34	vbs_length	notype dims=1
	35	vbs_point	notype dims=1
	36	i(vds)	current
	37	i(vgs)	current
	38	vgs_length	notype dims=1
	39	vth	voltage dims=14,13
	40	vth_point	voltage dims=1
Values:
 0	1.000000000000001e-01
	1.836348531274939e-15
	-3.512061431318424e-18
	-1.152340194704111e-18
	-1.416112470674409e-17
	1.882552633276663e-17
	-1.827570405664140e-15
	2.710652131851766e-18
	1.871434763151223e-15
	-4.657500961893499e-17
	-5.266064179480631e-18
	-1.728255275776634e-18
	-2.123374237363264e-17
	2.822806182889005e-17
	3.588094080812259e-06
	3.994277781774015e-05
	9.382100511354977e-06
	1.648494128610873e-06
	4.622184857083766e-10
	1.300000000000000e+00
	4.821950318561961e-02
	1.000000003984876e-01
	2.323257142240573e-01
	1.400000000000000e+01
	1.299999999537782e+00
	1.299999999759066e+00
	1.199999999601512e+00
	1.299999999768891e+00
	1.300000000000000e+00
	1.300000000000000e+00
	1.200000000000000e+00
	1.300000000000000e+00
	-1.000000000000000e-01
	-1.239132130237408e-10
	1.400000000000000e+01
	1.300000000000000e+00
	1.648638966414110e-06
	-2.092059858682660e-11
	1.300000000000000e+01
	2.323257142240573e-01
	-4.519291938072652e-01

 1	2.000000000000000e-01
	1.767212795760621e-15
	-5.662483671246121e-17
	-1.972273118117328e-17
	-2.423783154988008e-16
	3.187258833924353e-16
	-1.625683669794547e-15
	4.355800649036870e-17
	2.288486074123085e-15
	-7.063604108189069e-16
	-8.490428925361262e-17
	-2.958023125835206e-17
	-3.634309216563386e-16
	4.779154421683034e-16
	2.933237425260199e-05
	3.236345035198715e-04
	7.434437170324245e-05
	1.567877004527592e-05
	3.182155206005177e-09
	1.300000000000000e+00
	6.414266261424313e-02
	2.000000002409250e-01
	2.323257136234000e-01
	0.000000000000000e+00
	1.299999996817845e+00
	1.299999998399097e+00
	1.099999999759075e+00
	1.299999998408922e+00
	1.300000000000000e+00
	1.300000000000000e+00
	1.100000000000000e+00
	1.300000000000000e+00
	-2.000000000000000e-01
	-8.492297420836792e-10
	0.000000000000000e+00
	0.000000000000000e+00
	1.567963194562094e-05
	-1.264856275273729e-11
	0.000000000000000e+00
	2.323257136234000e-01
	0.000000000000000e+00

 2	3.000000000000000e-01
	1.737483014212403e-15
	-3.274778591273849e-16
	-1.192000107733753e-16
	-1.465216538411879e-15
	1.911894408312639e-15
	-9.189913659369657e-16
	2.843808698764164e-16
	5.200681976169700e-15
	-4.566071480109150e-15
	-4.910137891480523e-16
	-1.788076816926337e-16
	-2.196966455355682e-15
	2.866787926196368e-15
	1.268462746293387e-04
	1.365213924124176e-03
	3.133076020189743e-04
	9.329612093172296e-05
	7.213515562654038e-09
	1.300000000000000e+00
	1.100544790252431e-01
	3.000000001424369e-01
	2.323257127331350e-01
	0.000000000000000e+00
	1.299999992786484e+00
	1.299999996383417e+00
	9.999999998575632e-01
	1.299999996393242e+00
	1.300000000000000e+00
	1.300000000000000e+00
	1.000000000000000e+00
	1.300000000000000e+00
	-3.000000000000000e-01
	-1.924259196428579e-09
	0.000000000000000e+00
	0.000000000000000e+00
	9.329805273757094e-05
	-7.477934937938358e-12
	0.000000000000000e+00
	2.323257127331350e-01
	0.000000000000000e+00

 3	4.000000000000000e-01
	1.675531816041289e-15
	-4.486040459960922e-16
	-1.649560878085246e-16
	-2.029075509871412e-15
	2.642635643676029e-15
	-5.543417462126969e-16
	4.132524704693058e-16
	6.770960786927112e-15
	-6.629871511183721e-15
	-6.725860238324995e-16
	-2.475800950320440e-16
	-3.042322033167010e-15
	3.962488152031553e-15
	2.621973209451976e-04
	2.669605882685124e-03
	6.239544832616691e-04
	2.974965120587159e-04
	5.005210468311816e-09
	1.300000000000000e+00
	1.762952561641364e-01
	4.000000000806896e-01
	2.323257132208052e-01
	0.000000000000000e+00
	1.299999994994790e+00
	1.299999997487570e+00
	8.999999999193105e-01
	1.299999997497395e+00
	1.300000000000000e+00
	1.300000000000000e+00
	9.000000000000000e-01
	1.300000000000000e+00
	-4.000000000000000e-01
	-1.335377808331373e-09
	0.000000000000000e+00
	0.000000000000000e+00
	2.974978518422875e-04
	-4.236201667229267e-12
	0.000000000000000e+00
	2.323257132208052e-01
	0.000000000000000e+00

 4	5.000000000000000e-01
	1.630919833577547e-15
	-4.845248146226556e-16
	-1.781684126071210e-16
	-2.193676400061883e-15
	2.856369627291659e-15
	-4.200093408747107e-16
	4.561441915183448e-16
	7.290762542399877e-15
	-7.326897393043511e-15
	-7.263856780801805e-16
	-2.676093537115293e-16
	-3.288981674260763e-15
	4.282976706052472e-15
	3.732366327218280e-04
	3.539791219163194e-03
	8.484837798212245e-04
	6.116454393849863e-04
	1.737953558844652e-09
	1.300000000000000e+00
	2.451274978800410e-01
	5.000000000407965e-01
	2.323257139423301e-01
	0.000000000000000e+00
	1.299999998262046e+00
	1.299999999121198e+00
	7.999999999592036e-01
	1.299999999131023e+00
	1.300000000000000e+00
	1.300000000000000e+00
	8.000000000000000e-01
	1.300000000000000e+00
	-5.000000000000000e-01
	-4.641092510304645e-10
	0.000000000000000e+00
	0.000000000000000e+00
	6.116459060032291e-04
	-2.141814503531236e-12
	0.000000000000000e+00
	2.323257139423301e-01
	0.000000000000000e+00

 5	6.000000000000000e-01
	1.596712956929893e-15
	-5.054497486462145e-16
	-1.856577710913540e-16
	-2.288460131634225e-15
	2.979567651371794e-15
	-3.335722903973200e-16
	4.813562917897361e-16
	7.595228356812726e-15
	-7.743012358205142e-15
	-7.576909178863586e-16
	-2.791048574629078e-16
	-3.430926543630449e-15
	4.467722318979715e-15
	4.621734536442152e-04
	4.075133661659671e-03
	9.984741359353707e-04
	9.943751144288243e-04
	4.107787443530242e-10
	1.300000000000000e+00
	3.112685727457215e-01
	6.000000000124026e-01
	2.323257142354167e-01
	0.000000000000000e+00
	1.299999999589221e+00
	1.299999999784786e+00
	6.999999999875974e-01
	1.299999999794611e+00
	1.300000000000000e+00
	1.300000000000000e+00
	7.000000000000001e-01
	1.300000000000000e+00
	-6.000000000000000e-01
	-1.101959634652872e-10
	0.000000000000000e+00
	0.000000000000000e+00
	9.943752260091936e-04
	-6.511388650487504e-13
	0.000000000000000e+00
	2.323257142354167e-01
	0.000000000000000e+00

 6	7.000000000000000e-01
	1.568103579447857e-15
	-5.201705625796787e-16
	-1.908045530252293e-16
	-2.355006250981641e-15
	3.065981366586549e-15
	-2.682483965913130e-16
	4.990144218969168e-16
	7.808284263913649e-15
	-8.039050289219254e-15
	-7.796846202768658e-16
	-2.871401108814269e-16
	-3.530501065291354e-15
	4.597325796449647e-15
	5.391984510744006e-04
	4.429460030738882e-03
	1.103516752152106e-03
	1.420736366931842e-03
	7.372658039628277e-11
	1.300000000000000e+00
	3.747418040008240e-01
	6.999999999875617e-01
	2.323257143098499e-01
	0.000000000000000e+00
	1.299999999926273e+00
	1.299999999953312e+00
	6.000000000124384e-01
	1.299999999963137e+00
	1.300000000000000e+00
	1.300000000000000e+00
	6.000000000000001e-01
	1.300000000000000e+00
	-7.000000000000000e-01
	-2.031541601610343e-11
	0.000000000000000e+00
	0.000000000000000e+00
	1.420736387978859e-03
	6.530123664028054e-13
	0.000000000000000e+00
	2.323257143098499e-01
	0.000000000000000e+00

 7	7.999999999999999e-01
	1.542982814581560e-15
	-5.312722778191132e-16
	-1.945655703819522e-16
	-2.405149178885546e-15
	3.130987027086612e-15
	-2.154679255442942e-16
	5.122473082968745e-16
	7.968151228453473e-15
	-8.264930611206053e-15
	-7.962426112181525e-16
	-2.931575420688578e-16
	-3.605447373697722e-15
	4.694847526984732e-15
	6.093515892229837e-04
	4.672883310646735e-03
	1.178782927242690e-03
	1.876605000671948e-03
	1.834199458983221e-11
	1.300000000000000e+00
	4.362583389610789e-01
	7.999999999588870e-01
	2.323257143220809e-01
	0.000000000000000e+00
	1.299999999981658e+00
	1.299999999981004e+00
	5.000000000411130e-01
	1.299999999990829e+00
	1.300000000000000e+00
	1.300000000000000e+00
	5.000000000000001e-01
	1.300000000000000e+00
	-7.999999999999999e-01
	-5.546230141817432e-12
	0.000000000000000e+00
	0.000000000000000e+00
	1.876605006568734e-03
	2.158426215537190e-12
	0.000000000000000e+00
	2.323257143220809e-01
	0.000000000000000e+00

 8	8.999999999999999e-01
	1.520233358757389e-15
	-5.400161851442211e-16
	-1.973980877197114e-16
	-2.444609280547029e-15
	3.182023553410961e-15
	-1.709615982782949e-16
	5.225831040021456e-16
	8.093465900798970e-15
	-8.445087406522822e-15
	-8.092555753348729e-16
	-2.978527691016730e-16
	-3.664338682219986e-15
	4.771447026656533e-15
	6.754150801739465e-04
	4.839677809164181e-03
	1.232558656717786e-03
	2.352772181194169e-03
	2.148903277543468e-11
	1.300000000000000e+00
	4.963775752980646e-01
	8.999999999165555e-01
	2.323257143213857e-01
	0.000000000000000e+00
	1.299999999978511e+00
	1.299999999979430e+00
	4.000000000834444e-01
	1.299999999989256e+00
	1.300000000000000e+00
	1.300000000000000e+00
	4.000000000000001e-01
	1.300000000000000e+00
	-8.999999999999999e-01
	-6.385447726131588e-12
	0.000000000000000e+00
	0.000000000000000e+00
	2.352772187604427e-03
	4.380829032868405e-12
	0.000000000000000e+00
	2.323257143213857e-01
	0.000000000000000e+00

 9	9.999999999999999e-01
	1.499188665285228e-15
	-5.471229598674165e-16
	-1.995575100107295e-16
	-2.476651947599717e-15
	3.223332417477862e-15
	-1.322623331309415e-16
	5.308917962883928e-16
	8.194835340969221e-15
	-8.593464804126672e-15
	-8.198033722868701e-16
	-3.016211451358744e-16
	-3.712065896022598e-15
	4.833490413445343e-15
	7.394231640752917e-04
	4.950496334379515e-03
	1.270196142830552e-03
	2.842681908078606e-03
	2.697042589261400e-11
	1.300000000000000e+00
	5.554852693170983e-01
	9.999999998384110e-01
	2.323257143201743e-01
	0.000000000000000e+00
	1.299999999973030e+00
	1.299999999976690e+00
	3.000000001615890e-01
	1.299999999986515e+00
	1.300000000000000e+00
	1.300000000000000e+00
	3.000000000000002e-01
	1.300000000000000e+00
	-9.999999999999999e-01
	-7.847111849201838e-12
	0.000000000000000e+00
	0.000000000000000e+00
	2.842681914988974e-03
	8.483411889637082e-12
	0.000000000000000e+00
	2.323257143201743e-01
	0.000000000000000e+00

 10	1.100000000000000e+00
	1.479419100056222e-15
	-5.530403550916762e-16
	-2.011962641944385e-16
	-2.503306759609428e-15
	3.257543378895543e-15
	-9.782228388225121e-17
	5.377105483347762e-16
	8.278823466856060e-15
	-8.718711731308586e-15
	-8.285564610822941e-16
	-3.047064503868951e-16
	-3.751665575311247e-15
	4.884928486780437e-15
	8.031387054557764e-04
	5.019126430439800e-03
	1.295452031279245e-03
	3.341469889104562e-03
	4.494915550878886e-11
	1.300000000000000e+00
	6.138520900914793e-01
	1.099999999657708e+00
	2.323257143162043e-01
	0.000000000000000e+00
	1.299999999955051e+00
	1.299999999967700e+00
	2.000000003422919e-01
	1.299999999977525e+00
	1.300000000000000e+00
	1.300000000000000e+00
	2.000000000000002e-01
	1.300000000000000e+00
	-1.100000000000000e+00
	-1.264144344759188e-11
	0.000000000000000e+00
	0.000000000000000e+00
	3.341469896446322e-03
	1.797031447259290e-11
	0.000000000000000e+00
	2.323257143162043e-01
	0.000000000000000e+00

 11	1.200000000000000e+00
	1.460632156214050e-15
	-5.580636726470488e-16
	-2.024077384451428e-16
	-2.525913590359836e-15
	3.286385001452028e-15
	-6.661193251797554e-17
	5.433898926949691e-16
	8.349741456133606e-15
	-8.826519416310599e-15
	-8.359565510490260e-16
	-3.072673872819840e-16
	-3.785138580740114e-15
	4.928362519071123e-15
	8.682669362436164e-04
	5.054992959200991e-03
	1.311054194942885e-03
	3.845418402621021e-03
	1.118163339697276e-10
	1.300000000000000e+00
	6.716748471704971e-01
	1.199999999167117e+00
	2.323257143014383e-01
	0.000000000000000e+00
	1.299999999888184e+00
	1.299999999934267e+00
	1.000000008328835e-01
	1.299999999944092e+00
	1.300000000000000e+00
	1.300000000000000e+00
	1.000000000000001e-01
	1.300000000000000e+00
	-1.200000000000000e+00
	-3.047273544609652e-11
	0.000000000000000e+00
	0.000000000000000e+00
	3.845418410291999e-03
	4.372637928823364e-11
	0.000000000000000e+00
	2.323257143014383e-01
	0.000000000000000e+00

 12	1.300000000000000e+00
	1.442620450620005e-15
	-5.623968567549315e-16
	-2.032481396852604e-16
	-2.545399530039381e-15
	3.311044526479573e-15
	-3.791538412523024e-17
	5.481676573925384e-16
	8.410553788374674e-15
	-8.920806061641982e-15
	-8.423082097398429e-16
	-3.094111674511666e-16
	-3.813864994272560e-15
	4.965584371463570e-15
	9.366273523599073e-04
	5.064468306114834e-03
	1.319023441530122e-03
	4.351591225739878e-03
	3.482489852046911e-10
	1.300000000000000e+00
	7.291009234085724e-01
	1.299999997719586e+00
	2.323257142492254e-01
	0.000000000000000e+00
	1.299999999651751e+00
	1.299999999816051e+00
	2.280413975088900e-09
	1.299999999825876e+00
	1.300000000000000e+00
	1.300000000000000e+00
	0.000000000000000e+00
	1.300000000000000e+00
	-1.300000000000000e+00
	-9.352141283613946e-11
	0.000000000000000e+00
	0.000000000000000e+00
	4.351591233618679e-03
	1.197217336921672e-10
	0.000000000000000e+00
	2.323257142492254e-01
	0.000000000000000e+00

 13	1.000000000000001e-01
	1.748148860566871e-15
	-1.631200694061604e-18
	-5.654638671058075e-19
	-6.948966246288747e-18
	9.145630807456159e-18
	-1.744071798642198e-15
	1.372038153054283e-18
	1.766635572569799e-15
	-2.393581208065566e-17
	-2.445861230611008e-18
	-8.480641911712016e-19
	-1.041955135198863e-17
	1.371347677377098e-17
	2.110563833727015e-06
	2.358669777221766e-05
	5.257423913835943e-06
	9.368919917610019e-07
	-9.999999973312867e-02
	1.300000000000000e+00
	4.769141863839194e-02
	1.000000003984876e-01
	2.537837711407013e-01
	0.000000000000000e+00
	1.399999999733129e+00
	1.399999999855989e+00
	1.199999999601512e+00
	1.399999999865806e+00
	1.400000000000000e+00
	1.400000000000000e+00
	1.200000000000000e+00
	1.300000000000000e+00
	-1.000000000000000e-01
	-7.192119122478857e-11
	0.000000000000000e+00
	0.000000000000000e+00
	9.369847364654685e-07
	-2.092059858682660e-11
	0.000000000000000e+00
	2.537837711407013e-01
	0.000000000000000e+00

 14	2.000000000000000e-01
	1.679733779013853e-15
	-2.887876660671323e-17
	-1.057704691628619e-17
	-1.299838953349421e-16
	1.694397088579416e-16
	-1.607553600973746e-15
	2.386260860127847e-17
	1.967748179599741e-15
	-3.840571872272733e-16
	-4.330141143339347e-17
	-1.586339111147812e-17
	-1.949027651687117e-16
	2.540675677135831e-16
	1.909725435140823e-05
	2.114555813230828e-04
	4.605749669839396e-05
	9.769816948729591e-06
	-9.999999780685487e-02
	1.300000000000000e+00
	5.917396699529212e-02
	2.000000002409250e-01
	2.537837707387797e-01
	0.000000000000000e+00
	1.399999997806855e+00
	1.399999998892852e+00
	1.099999999759075e+00
	1.399999998902669e+00
	1.400000000000000e+00
	1.400000000000000e+00
	1.100000000000000e+00
	1.300000000000000e+00
	-2.000000000000000e-01
	-5.855942397658964e-10
	0.000000000000000e+00
	0.000000000000000e+00
	9.770415112497852e-06
	-1.264856275273729e-11
	0.000000000000000e+00
	2.537837707387797e-01
	0.000000000000000e+00

 15	3.000000000000000e-01
	1.651725071386289e-15
	-2.539539889867768e-16
	-9.741683638586045e-17
	-1.197347357704305e-15
	1.548718183076942e-15
	-1.016993684908290e-15
	2.320342311306661e-16
	4.476995745520217e-15
	-3.692036291742594e-15
	-3.807773974912231e-16
	-1.461206541611642e-16
	-1.795328974021870e-15
	2.322227025674257e-15
	9.819920319093654e-05
	1.066939018860537e-03
	2.314707246916601e-04
	6.621526216879906e-05
	-9.999999349496891e-02
	1.300000000000000e+00
	9.897034145481751e-02
	3.000000001424369e-01
	2.537837698390945e-01
	0.000000000000000e+00
	1.399999993494969e+00
	1.399999996736909e+00
	9.999999998575632e-01
	1.399999996746726e+00
	1.400000000000000e+00
	1.400000000000000e+00
	1.000000000000000e+00
	1.300000000000000e+00
	-3.000000000000000e-01
	-1.735430521510040e-09
	0.000000000000000e+00
	0.000000000000000e+00
	6.621700504489108e-05
	-7.477934937938358e-12
	0.000000000000000e+00
	2.537837698390945e-01
	0.000000000000000e+00

 16	4.000000000000000e-01
	1.592587154971179e-15
	-4.118128899829253e-16
	-1.602114696369815e-16
	-1.970372513439672e-15
	2.542396873059579e-15
	-5.633385730448150e-16
	4.035930351941177e-16
	6.571324193390744e-15
	-6.411578655540046e-15
	-6.174356919434387e-16
	-2.404252733625061e-16
	-2.954327376234665e-15
	3.812188341540609e-15
	2.315698236237483e-04
	2.394161612234518e-03
	5.272176065900834e-04
	2.400367172936943e-04
	-9.999999451986530e-02
	1.300000000000000e+00
	1.636137092518668e-01
	4.000000000806895e-01
	2.537837700529421e-01
	0.000000000000000e+00
	1.399999994519865e+00
	1.399999997249358e+00
	8.999999999193106e-01
	1.399999997259175e+00
	1.400000000000000e+00
	1.400000000000000e+00
	9.000000000000000e-01
	1.300000000000000e+00
	-4.000000000000000e-01
	-1.462124810114318e-09
	0.000000000000000e+00
	0.000000000000000e+00
	2.400381837231406e-04
	-4.236194728335363e-12
	0.000000000000000e+00
	2.537837700529421e-01
	0.000000000000000e+00

 17	5.000000000000000e-01
	1.548718685513607e-15
	-4.523071751107953e-16
	-1.760655330541595e-16
	-2.167330112758171e-15
	2.795702820923126e-15
	-4.183124509560811e-16
	4.542295334656079e-16
	7.187472467091140e-15
	-7.223389549600666e-15
	-6.780990594467301e-16
	-2.644059253253554e-16
	-3.249508196120369e-15
	4.192013180892455e-15
	3.477690093206905e-04
	3.356117277928210e-03
	7.573048417341945e-04
	5.314448439827665e-04
	-9.999999793261249e-02
	1.300000000000000e+00
	2.335698815050418e-01
	5.000000000407965e-01
	2.537837707650190e-01
	0.000000000000000e+00
	1.399999997932613e+00
	1.399999998955731e+00
	7.999999999592036e-01
	1.399999998965548e+00
	1.400000000000000e+00
	1.400000000000000e+00
	8.000000000000000e-01
	1.300000000000000e+00
	-5.000000000000000e-01
	-5.520588985952202e-10
	0.000000000000000e+00
	0.000000000000000e+00
	5.314453984496086e-04
	-2.141814503531236e-12
	0.000000000000000e+00
	2.537837707650190e-01
	0.000000000000000e+00

 18	6.000000000000000e-01
	1.516124938757819e-15
	-4.739442733903806e-16
	-1.842972200939578e-16
	-2.271136447525064e-15
	2.929377941009402e-15
	-3.317022032105170e-16
	4.818018098678666e-16
	7.521919072648715e-15
	-7.672018679306064e-15
	-7.104784621569216e-16
	-2.770049320724708e-16
	-3.404985720555588e-15
	4.392469114784981e-15
	4.401303874137228e-04
	3.949316755616308e-03
	9.116419607059952e-04
	8.989560199941776e-04
	-9.999999949375171e-02
	1.300000000000000e+00
	3.011936236119930e-01
	6.000000000124019e-01
	2.537837710907543e-01
	0.000000000000000e+00
	1.399999999493752e+00
	1.399999999736301e+00
	6.999999999875981e-01
	1.399999999746118e+00
	1.400000000000000e+00
	1.400000000000000e+00
	7.000000000000001e-01
	1.300000000000000e+00
	-6.000000000000000e-01
	-1.357551293601489e-10
	0.000000000000000e+00
	0.000000000000000e+00
	8.989561570326107e-04
	-6.511041705792309e-13
	0.000000000000000e+00
	2.537837710907543e-01
	0.000000000000000e+00

 19	7.000000000000000e-01
	1.489243806762220e-15
	-4.888319053098375e-16
	-1.898351996624552e-16
	-2.342384403752949e-15
	3.021051508725241e-15
	-2.676828569616745e-16
	5.007043476200592e-16
	7.751020294578264e-15
	-7.984041785236649e-15
	-7.327290444907078e-16
	-2.856164968754606e-16
	-3.511613940344243e-15
	4.529959481710411e-15
	5.192728798439750e-04
	4.339579084962512e-03
	1.019782617081561e-03
	1.314654301944455e-03
	-9.999999990759956e-02
	1.300000000000000e+00
	3.659888203817023e-01
	6.999999999875560e-01
	2.537837711771047e-01
	0.000000000000000e+00
	1.399999999907600e+00
	1.399999999943225e+00
	6.000000000124440e-01
	1.399999999953042e+00
	1.400000000000000e+00
	1.400000000000000e+00
	6.000000000000001e-01
	1.300000000000000e+00
	-7.000000000000000e-01
	-2.539568555448568e-11
	0.000000000000000e+00
	0.000000000000000e+00
	1.314654327970362e-03
	6.533107388406734e-13
	0.000000000000000e+00
	2.537837711771047e-01
	0.000000000000000e+00

 20	7.999999999999999e-01
	1.465807197215057e-15
	-4.999286369545994e-16
	-1.938429832966891e-16
	-2.395445150089015e-15
	3.089216770340303e-15
	-2.165917679757256e-16
	5.147102464633840e-16
	7.920969056614239e-15
	-8.219087535101897e-15
	-7.492867922847325e-16
	-2.919927151248537e-16
	-3.590938845852562e-15
	4.632218353262148e-15
	5.908914112878575e-04
	4.608021256100579e-03
	1.097826564189239e-03
	1.762852794346674e-03
	-9.999999998210196e-02
	1.300000000000000e+00
	4.286473330699484e-01
	7.999999999588356e-01
	2.537837711926506e-01
	0.000000000000000e+00
	1.399999999982102e+00
	1.399999999980476e+00
	5.000000000411644e-01
	1.399999999990293e+00
	1.400000000000000e+00
	1.400000000000000e+00
	5.000000000000001e-01
	1.300000000000000e+00
	-7.999999999999999e-01
	-5.528411062272198e-12
	0.000000000000000e+00
	0.000000000000000e+00
	1.762852800121869e-03
	2.161125445265810e-12
	0.000000000000000e+00
	2.537837711926506e-01
	0.000000000000000e+00

 21	8.999999999999999e-01
	1.444666699435037e-15
	-5.085984406043478e-16
	-1.968454744687994e-16
	-2.436868170943693e-15
	3.142312086016840e-15
	-1.738718677915881e-16
	5.255666799903963e-16
	8.053134731941961e-15
	-8.404829544140769e-15
	-7.621963910391011e-16
	-2.969304410427991e-16
	-3.652776949509361e-15
	4.711903781591261e-15
	6.580095300429203e-04
	4.793316277951692e-03
	1.154299538054988e-03
	2.233502590937685e-03
	-9.999999997885123e-02
	1.300000000000000e+00
	4.897693805011955e-01
	8.999999999161532e-01
	2.537837711919716e-01
	0.000000000000000e+00
	1.399999999978851e+00
	1.399999999978851e+00
	4.000000000838468e-01
	1.399999999988668e+00
	1.400000000000000e+00
	1.400000000000000e+00
	4.000000000000001e-01
	1.300000000000000e+00
	-8.999999999999999e-01
	-6.395273199899520e-12
	0.000000000000000e+00
	0.000000000000000e+00
	2.233502597235574e-03
	4.401951025911899e-12
	0.000000000000000e+00
	2.537837711919716e-01
	0.000000000000000e+00

 22	9.999999999999999e-01
	1.425156546719972e-15
	-5.156028019474422e-16
	-1.991296479790921e-16
	-2.470305084999719e-15
	3.185037534926253e-15
	-1.369548241214250e-16
	5.342459802454540e-16
	8.159412166833151e-15
	-8.556703322957180e-15
	-7.725989206511052e-16
	-3.008722026506564e-16
	-3.702598316495517e-15
	4.776069439797279e-15
	7.227622516283249e-04
	4.918202459021520e-03
	1.194597406739747e-03
	2.719510446562368e-03
	-9.999999997291265e-02
	1.300000000000000e+00
	5.497749534397233e-01
	9.999999998359167e-01
	2.537837711907320e-01
	0.000000000000000e+00
	1.399999999972913e+00
	1.399999999975881e+00
	3.000000001640833e-01
	1.399999999985698e+00
	1.400000000000000e+00
	1.400000000000000e+00
	3.000000000000002e-01
	1.300000000000000e+00
	-9.999999999999999e-01
	-7.978895322224844e-12
	0.000000000000000e+00
	0.000000000000000e+00
	2.719510453372482e-03
	8.614369634285524e-12
	0.000000000000000e+00
	2.537837711907320e-01
	0.000000000000000e+00

 23	1.100000000000000e+00
	1.406856125919585e-15
	-5.214076852043638e-16
	-2.008647869296878e-16
	-2.497991026456285e-15
	3.220263498590336e-15
	-1.042562728199897e-16
	5.413397147928751e-16
	8.247056083669294e-15
	-8.684139525642179e-15
	-7.811921678952319e-16
	-3.040869007596982e-16
	-3.743747727307939e-15
	4.829026795962868e-15
	7.869683091689193e-04
	4.997723692031971e-03
	1.222484855914067e-03
	3.215636071191817e-03
	-9.999999995304365e-02
	1.300000000000000e+00
	6.089590423255415e-01
	1.099999999645875e+00
	2.537837711865867e-01
	0.000000000000000e+00
	1.399999999953044e+00
	1.399999999965947e+00
	2.000000003541250e-01
	1.399999999975764e+00
	1.400000000000000e+00
	1.400000000000000e+00
	2.000000000000002e-01
	1.300000000000000e+00
	-1.100000000000000e+00
	-1.327726817379471e-11
	0.000000000000000e+00
	0.000000000000000e+00
	3.215636078447086e-03
	1.859155017436276e-11
	0.000000000000000e+00
	2.537837711865867e-01
	0.000000000000000e+00

 24	1.200000000000000e+00
	1.389483181876475e-15
	-5.263169335302090e-16
	-2.021540735728138e-16
	-2.521384726682860e-15
	3.249855733785882e-15
	-7.473558457772287e-17
	5.472298162650977e-16
	8.320780282930007e-15
	-8.793274514617381e-15
	-7.884306637685429e-16
	-3.067477743075120e-16
	-3.778404238436856e-15
	4.873582676512911e-15
	8.523674848634274e-04
	5.042150378922722e-03
	1.240690500246563e-03
	3.717888969539033e-03
	-9.999999987936259e-02
	1.300000000000000e+00
	6.675358873535356e-01
	1.199999999120948e+00
	2.537837711712127e-01
	0.000000000000000e+00
	1.399999999879363e+00
	1.399999999929106e+00
	1.000000008790521e-01
	1.399999999938923e+00
	1.400000000000000e+00
	1.400000000000000e+00
	1.000000000000001e-01
	1.300000000000000e+00
	-1.200000000000000e+00
	-3.292555117440088e-11
	0.000000000000000e+00
	0.000000000000000e+00
	3.717888977137892e-03
	4.615023294074483e-11
	0.000000000000000e+00
	2.537837711712127e-01
	0.000000000000000e+00

 25	1.300000000000000e+00
	1.372839695500591e-15
	-5.305385427389420e-16
	-2.030597795864758e-16
	-2.541486415631481e-15
	3.275084737956899e-15
	-4.767609652439632e-17
	5.521733802561086e-16
	8.383798954029423e-15
	-8.888296237761135e-15
	-7.946250562372530e-16
	-3.089709877392585e-16
	-3.808057547167096e-15
	4.911653591143607e-15
	9.207995251848961e-04
	5.058445531513477e-03
	1.251231555998857e-03
	4.223131066224780e-03
	-9.999999962043815e-02
	1.300000000000000e+00
	7.256657254722299e-01
	1.299999997559447e+00
	2.537837711171871e-01
	0.000000000000000e+00
	1.399999999620438e+00
	1.399999999799644e+00
	2.440553428767775e-09
	1.399999999809461e+00
	1.400000000000000e+00
	1.400000000000000e+00
	0.000000000000000e+00
	1.300000000000000e+00
	-1.300000000000000e+00
	-1.019720419215275e-10
	0.000000000000000e+00
	0.000000000000000e+00
	4.223131074045805e-03
	1.281290550103082e-10
	0.000000000000000e+00
	2.537837711171871e-01
	0.000000000000000e+00

 26	1.000000000000001e-01
	1.671649669323010e-15
	-7.667724642823927e-19
	-2.795292888127145e-19
	-3.435119582487467e-18
	4.481421335582574e-18
	-1.669733179266915e-15
	6.922617118690705e-19
	1.681508064944513e-15
	-1.246714738946748e-17
	-1.149717591813036e-18
	-4.192266439315875e-19
	-5.150752562224912e-18
	6.719696797969428e-18
	1.247229347245213e-06
	1.398876407310025e-05
	2.972306423641151e-06
	5.364549988477492e-07
	-1.999999998451512e-01
	1.300000000000000e+00
	4.753931249517603e-02
	1.000000003984876e-01
	2.741135504610847e-01
	0.000000000000000e+00
	1.499999999845151e+00
	1.499999999911251e+00
	1.199999999601512e+00
	1.499999999921067e+00
	1.500000000000000e+00
	1.500000000000000e+00
	1.200000000000000e+00
	1.300000000000000e+00
	-1.000000000000000e-01
	-4.214856241802067e-11
	0.000000000000000e+00
	0.000000000000000e+00
	5.365178709008624e-07
	-2.092059858682660e-11
	0.000000000000000e+00
	2.741135504610847e-01
	0.000000000000000e+00

 27	2.000000000000000e-01
	1.607400341692509e-15
	-1.490345007177638e-17
	-5.716147496835353e-18
	-7.024700162126312e-17
	9.086659918987485e-17
	-1.570150330956646e-15
	1.328231855817875e-17
	1.769378779918688e-15
	-2.125107675202207e-16
	-2.234656066408647e-17
	-8.573002056086840e-18
	-1.053310521925368e-16
	1.362506149127100e-16
	1.238958141299266e-05
	1.376027390190802e-04
	2.854845307070952e-05
	6.109806312582727e-06
	-1.999999985260901e-01
	1.300000000000000e+00
	5.562730996817416e-02
	2.000000002409250e-01
	2.741135501996510e-01
	0.000000000000000e+00
	1.499999998526090e+00
	1.499999999251720e+00
	1.099999999759075e+00
	1.499999999261537e+00
	1.500000000000000e+00
	1.500000000000000e+00
	1.100000000000000e+00
	1.300000000000000e+00
	-2.000000000000000e-01
	-3.938982473528085e-10
	0.000000000000000e+00
	0.000000000000000e+00
	6.110212680336945e-06
	-1.264856275273729e-11
	0.000000000000000e+00
	2.741135501996510e-01
	0.000000000000000e+00

 28	3.000000000000000e-01
	1.577400921893038e-15
	-1.819830100095489e-16
	-7.312986056422192e-17
	-8.987810804287918e-16
	1.153893951002563e-15
	-1.122551483020581e-15
	1.736824070864740e-16
	3.691521661560306e-15
	-2.742652585626198e-15
	-2.728664288629078e-16
	-1.096857149913088e-16
	-1.347657505236968e-15
	1.730209649091184e-15
	7.423304410543831e-05
	8.125641959205063e-04
	1.675246625391331e-04
	4.640394553783880e-05
	-1.999999943904780e-01
	1.300000000000000e+00
	8.921114749550813e-02
	3.000000001424368e-01
	2.741135493799886e-01
	0.000000000000000e+00
	1.499999994390478e+00
	1.499999997183914e+00
	9.999999998575633e-01
	1.499999997193731e+00
	1.500000000000000e+00
	1.500000000000000e+00
	1.000000000000000e+00
	1.300000000000000e+00
	-3.000000000000000e-01
	-1.496728074812381e-09
	0.000000000000000e+00
	0.000000000000000e+00
	4.640544961145875e-05
	-7.477927999044454e-12
	0.000000000000000e+00
	2.741135493799886e-01
	0.000000000000000e+00

 29	4.000000000000000e-01
	1.522592343534212e-15
	-3.769136534850094e-16
	-1.542745018832130e-16
	-1.897062944402422e-15
	2.428251099770645e-15
	-5.805597083410643e-16
	3.900083364180457e-16
	6.334372747421322e-15
	-6.143821375498303e-15
	-5.651189817081379e-16
	-2.314869165976269e-16
	-2.844428927240042e-15
	3.641034825545807e-15
	2.020626589324652e-04
	2.117750968561880e-03
	4.417034171625847e-04
	1.916761361375322e-04
	-1.999999941556005e-01
	1.300000000000000e+00
	1.513373593858317e-01
	4.000000000806896e-01
	2.741135493334367e-01
	0.000000000000000e+00
	1.499999994155601e+00
	1.499999997066475e+00
	8.999999999193105e-01
	1.499999997076292e+00
	1.500000000000000e+00
	1.500000000000000e+00
	9.000000000000000e-01
	1.300000000000000e+00
	-4.000000000000000e-01
	-1.559362083902727e-09
	0.000000000000000e+00
	0.000000000000000e+00
	1.916776997041923e-04
	-4.236201667229267e-12
	0.000000000000000e+00
	2.741135493334367e-01
	0.000000000000000e+00

 30	5.000000000000000e-01
	1.478587640262338e-15
	-4.241170677407722e-16
	-1.738280255873857e-16
	-2.139372854321667e-15